# Projected DOS for atomic kind Al at iteration step i = 0, E(Fermi) =     0.023705 a.u.
#     MO Eigenvalue [a.u.]      Occupation                 s                 p                 d
       1         -0.767294        1.000000        0.35796702        0.15387341        0.02832560
       2         -0.761984        1.000000        0.23409863        0.25822691        0.04234266
       3         -0.751133        1.000000        0.32983046        0.17977578        0.03104127
       4         -0.743197        1.000000        0.24719167        0.24949105        0.04473201
       5         -0.725739        1.000000        0.08308539        0.25382659        0.10121867
       6         -0.723841        1.000000        0.07409243        0.20806356        0.14294017
       7         -0.722393        1.000000        0.19940363        0.22598403        0.04771765
       8         -0.721874        1.000000        0.17457426        0.26111409        0.04559723
       9         -0.717965        1.000000        0.12944906        0.25738314        0.07476975
      10         -0.712284        1.000000        0.13461975        0.16434852        0.14167581
      11         -0.711345        1.000000        0.12291820        0.21574704        0.11464241
      12         -0.707824        1.000000        0.06016931        0.21160105        0.14582396
      13         -0.705843        1.000000        0.13648550        0.25056500        0.07211426
      14         -0.703979        1.000000        0.05372645        0.21725237        0.15794273
      15         -0.703432        1.000000        0.11272916        0.29693861        0.07197899
      16         -0.702043        1.000000        0.02100566        0.22842113        0.16386644
      17         -0.698202        1.000000        0.11073993        0.24109181        0.10019215
      18         -0.697160        1.000000        0.07780744        0.23124111        0.11420581
      19         -0.695450        1.000000        0.08557285        0.23099409        0.11090961
      20         -0.693248        1.000000        0.08653617        0.22451151        0.11484951
      21         -0.692138        1.000000        0.07698837        0.27352630        0.09580468
      22         -0.689326        1.000000        0.03002143        0.25257417        0.13148824
      23         -0.684599        1.000000        0.09094197        0.19608068        0.12385874
      24         -0.684263        1.000000        0.05182317        0.24418262        0.12850343
      25         -0.682880        1.000000        0.07281995        0.25188140        0.06735919
      26         -0.682628        1.000000        0.04165426        0.27005889        0.09507169
      27         -0.680824        1.000000        0.05506831        0.23013332        0.11225778
      28         -0.679024        1.000000        0.02723929        0.22321877        0.13606970
      29         -0.676939        1.000000        0.04733336        0.17595975        0.17546354
      30         -0.675898        1.000000        0.03394833        0.17014683        0.19755293
      31         -0.674370        1.000000        0.02064138        0.19744286        0.17806174
      32         -0.673540        1.000000        0.00725563        0.21159204        0.16686567
      33         -0.671254        1.000000        0.06287290        0.11755734        0.20133619
      34         -0.668349        1.000000        0.01341028        0.17828687        0.19927937
      35         -0.667800        1.000000        0.01346535        0.17368530        0.20433643
      36         -0.666808        1.000000        0.07397668        0.13234363        0.17127099
      37         -0.666473        1.000000        0.02785373        0.16210501        0.19532365
      38         -0.665631        1.000000        0.02145029        0.16751247        0.18621787
      39         -0.663536        1.000000        0.00761747        0.21603628        0.16109433
      40         -0.663336        1.000000        0.02869075        0.18438676        0.19156742
      41         -0.659666        1.000000        0.00723208        0.15008399        0.19884214
      42         -0.659076        1.000000        0.02901524        0.17389987        0.18406509
      43         -0.657991        1.000000        0.01194467        0.13150648        0.21441886
      44         -0.657066        1.000000        0.00356902        0.11943691        0.24779764
      45         -0.654736        1.000000        0.00440783        0.11801575        0.25944487
      46         -0.653907        1.000000        0.00422582        0.13854834        0.24604203
      47         -0.648474        1.000000        0.03195875        0.17262756        0.15982605
      48         -0.643408        1.000000        0.00735084        0.17765002        0.18085730
      49         -0.316155        1.000000        0.12653097        0.05910180        0.10779859
      50         -0.300547        1.000000        0.13488893        0.04167231        0.08067988
      51         -0.297642        1.000000        0.08775532        0.10722153        0.09503399
      52         -0.289692        1.000000        0.10352834        0.07317301        0.10124081
      53         -0.284011        1.000000        0.10254020        0.08679767        0.08861582
      54         -0.277285        1.000000        0.10056019        0.08191846        0.08457030
      55         -0.276095        1.000000        0.08190913        0.09984109        0.08252719
      56         -0.273185        1.000000        0.09406498        0.10756567        0.07525007
      57         -0.272725        1.000000        0.10046930        0.09625991        0.07600869
      58         -0.269688        1.000000        0.08755188        0.12173117        0.04776387
      59         -0.268533        1.000000        0.10915605        0.08176881        0.06207929
      60         -0.268458        1.000000        0.06235744        0.10995429        0.07394345
      61         -0.260269        1.000000        0.07519808        0.13557746        0.05582010
      62         -0.259807        1.000000        0.08583833        0.09276825        0.06545347
      63         -0.258040        1.000000        0.05160364        0.11350240        0.08559757
      64         -0.256599        1.000000        0.07053616        0.11337464        0.07305569
      65         -0.256034        1.000000        0.08379541        0.10003459        0.07453265
      66         -0.255523        1.000000        0.07082805        0.13016720        0.07445992
      67         -0.252941        1.000000        0.04265332        0.15672831        0.08690340
      68         -0.252436        1.000000        0.06775154        0.11877975        0.07065177
      69         -0.250594        1.000000        0.08362490        0.07391108        0.07810462
      70         -0.249410        1.000000        0.07963077        0.07411540        0.08959804
      71         -0.247430        1.000000        0.05368742        0.10949166        0.09493556
      72         -0.246577        1.000000        0.06587262        0.12450357        0.06362200
      73         -0.241350        1.000000        0.10964151        0.07636122        0.06328350
      74         -0.240542        1.000000        0.08582562        0.11202121        0.07780902
      75         -0.239964        1.000000        0.08639836        0.11279289        0.06233342
      76         -0.231239        1.000000        0.03862230        0.14214787        0.08615829
      77         -0.228980        1.000000        0.03197004        0.15925608        0.07573202
      78         -0.228505        1.000000        0.05168179        0.12377095        0.06826531
      79         -0.228019        1.000000        0.04193912        0.15449820        0.09674440
      80         -0.227874        1.000000        0.02218054        0.18115232        0.07281469
      81         -0.224051        1.000000        0.02414735        0.17105341        0.07971957
      82         -0.222818        1.000000        0.02266207        0.15671152        0.08175893
      83         -0.221843        1.000000        0.02972864        0.14938731        0.08675256
      84         -0.220014        1.000000        0.05437767        0.14394568        0.07711040
      85         -0.218551        1.000000        0.01812063        0.17296954        0.09302812
      86         -0.217790        1.000000        0.06726995        0.11831694        0.05824711
      87         -0.213387        1.000000        0.00867056        0.17195132        0.10677742
      88         -0.212077        1.000000        0.02400766        0.15195605        0.09130315
      89         -0.207669        1.000000        0.03653436        0.15795963        0.07471734
      90         -0.207055        1.000000        0.01398713        0.14343213        0.12521196
      91         -0.205733        1.000000        0.00668779        0.15897792        0.08924100
      92         -0.205701        1.000000        0.02625391        0.14844424        0.07328010
      93         -0.205411        1.000000        0.01778513        0.15733798        0.06848281
      94         -0.200881        1.000000        0.03789693        0.14388721        0.07414227
      95         -0.198263        1.000000        0.00721628        0.18286568        0.07630784
      96         -0.195781        1.000000        0.02612212        0.13172327        0.08160712
      97         -0.195394        1.000000        0.02617914        0.13615435        0.07926035
      98         -0.193687        1.000000        0.03772065        0.15223675        0.07389490
      99         -0.193054        1.000000        0.02961518        0.13776049        0.08768151
     100         -0.187106        1.000000        0.01210893        0.16372044        0.08174686
     101         -0.184451        1.000000        0.03770842        0.14648775        0.07464618
     102         -0.183063        1.000000        0.03017578        0.13202240        0.07578906
     103         -0.182269        1.000000        0.02894443        0.14401580        0.07917133
     104         -0.181503        1.000000        0.01740878        0.16956972        0.06798881
     105         -0.180264        1.000000        0.02496004        0.14673599        0.05362474
     106         -0.177815        1.000000        0.00796401        0.15988698        0.05418251
     107         -0.176616        1.000000        0.00372502        0.16139006        0.08464530
     108         -0.174359        1.000000        0.02719864        0.13064049        0.08010143
     109         -0.174145        1.000000        0.00479013        0.15544747        0.07038391
     110         -0.173937        1.000000        0.02625564        0.12974987        0.08022659
     111         -0.172518        1.000000        0.02460809        0.12959435        0.07834958
     112         -0.170444        1.000000        0.01438391        0.13881361        0.05011996
     113         -0.167356        1.000000        0.01172564        0.13815017        0.05786643
     114         -0.165482        1.000000        0.00858140        0.13267542        0.08173277
     115         -0.161629        1.000000        0.01268746        0.15618676        0.05822938
     116         -0.160681        1.000000        0.01924412        0.12492485        0.06622222
     117         -0.160049        1.000000        0.01323034        0.12975076        0.07486466
     118         -0.158852        1.000000        0.00266496        0.13853039        0.06821462
     119         -0.156480        1.000000        0.01514280        0.12033545        0.06490014
     120         -0.154730        1.000000        0.00484358        0.12866762        0.06838575
     121         -0.152673        1.000000        0.01149470        0.11091077        0.08603869
     122         -0.149655        1.000000        0.00476455        0.12286289        0.07579403
     123         -0.149322        1.000000        0.01407770        0.11100125        0.06867169
     124         -0.148188        1.000000        0.01362487        0.08561866        0.08007873
     125         -0.147169        1.000000        0.02127437        0.11973444        0.05715807
     126         -0.147094        1.000000        0.00384753        0.13041903        0.06489346
     127         -0.145016        1.000000        0.00211633        0.09742328        0.07497806
     128         -0.144783        1.000000        0.00490263        0.11470631        0.05029083
     129         -0.144258        1.000000        0.01224997        0.08738735        0.09399802
     130         -0.142945        1.000000        0.01226169        0.12309640        0.06988012
     131         -0.139753        1.000000        0.00619168        0.11375386        0.06304678
     132         -0.136824        1.000000        0.00317243        0.10918301        0.06534758
     133         -0.136553        1.000000        0.00879496        0.08056474        0.06589126
     134         -0.134907        1.000000        0.00283568        0.13323034        0.03868995
     135         -0.134122        1.000000        0.00870701        0.09565959        0.06127276
     136         -0.133891        1.000000        0.01247004        0.07633558        0.11628460
     137         -0.132798        1.000000        0.00569907        0.07070328        0.06568186
     138         -0.129408        1.000000        0.00248976        0.10630415        0.05123340
     139         -0.127856        1.000000        0.01197549        0.09404097        0.06299961
     140         -0.126862        1.000000        0.00156231        0.07460420        0.07845528
     141         -0.126129        1.000000        0.00617358        0.08872529        0.06636411
     142         -0.125787        1.000000        0.00292390        0.08242998        0.06408315
     143         -0.125540        1.000000        0.00288561        0.07674722        0.06949332
     144         -0.122928        1.000000        0.00198189        0.05242400        0.10245262
     145         -0.121078        1.000000        0.01287290        0.07886278        0.07647365
     146         -0.120656        1.000000        0.01197189        0.07663017        0.07869998
     147         -0.120489        1.000000        0.00322717        0.04993473        0.08851244
     148         -0.118466        1.000000        0.00178722        0.06656610        0.07026218
     149         -0.117917        1.000000        0.00438222        0.08280245        0.03683551
     150         -0.117658        1.000000        0.00127472        0.03027819        0.08566014
     151         -0.116767        1.000000        0.00227982        0.05593263        0.07331462
     152         -0.114697        1.000000        0.00145211        0.05363657        0.07238626
     153         -0.114381        1.000000        0.00438055        0.08891971        0.05173778
     154         -0.113686        1.000000        0.00610299        0.05854917        0.07763639
     155         -0.113509        1.000000        0.00311595        0.06518723        0.05700182
     156         -0.109841        1.000000        0.00372914        0.05606937        0.07948000
     157         -0.109457        1.000000        0.00357474        0.08157955        0.05635031
     158         -0.108959        1.000000        0.00483785        0.05681541        0.08324542
     159         -0.106452        1.000000        0.00499313        0.05498188        0.06923613
     160         -0.105726        1.000000        0.00710416        0.04141736        0.09706748
     161         -0.104106        1.000000        0.00858074        0.05427966        0.07583379
     162         -0.103184        1.000000        0.00161902        0.03610804        0.08306175
     163         -0.101613        1.000000        0.00453275        0.05586028        0.06596668
     164         -0.101023        1.000000        0.00972728        0.07103136        0.05189323
     165         -0.099889        1.000000        0.00208027        0.02312970        0.08332398
     166         -0.098724        1.000000        0.00190993        0.03772003        0.06417831
     167         -0.097725        1.000000        0.00436944        0.03361157        0.06290669
     168         -0.097057        1.000000        0.00186573        0.02860886        0.07083992
     169         -0.094458        1.000000        0.00775454        0.04216376        0.07891685
     170         -0.094369        1.000000        0.00165418        0.03355783        0.06643510
     171         -0.093284        1.000000        0.00099907        0.02044688        0.06827786
     172         -0.091180        1.000000        0.00829552        0.05429529        0.07655908
     173         -0.090555        1.000000        0.00096076        0.03541740        0.06667857
     174         -0.089809        1.000000        0.00778725        0.04415757        0.06868590
     175         -0.089139        1.000000        0.00128022        0.03721623        0.06489889
     176         -0.088085        1.000000        0.00095066        0.03503690        0.06287472
     177         -0.086237        1.000000        0.00098701        0.02695015        0.06927645
     178         -0.081293        1.000000        0.00234145        0.02921406        0.05167036
     179         -0.081172        1.000000        0.00324381        0.04380871        0.05100024
     180         -0.080736        1.000000        0.00273278        0.02745470        0.05252073
     181         -0.080110        1.000000        0.00868685        0.04720442        0.04909499
     182         -0.075549        1.000000        0.00040747        0.04593689        0.04527572
     183         -0.073984        1.000000        0.01121219        0.04112940        0.05033664
     184         -0.070579        1.000000        0.00247363        0.01972705        0.03766526
     185         -0.067327        1.000000        0.00289566        0.03865090        0.03778799
     186         -0.066785        1.000000        0.00365078        0.01671684        0.03182442
     187         -0.066749        1.000000        0.00587422        0.04806999        0.03568398
     188         -0.063625        1.000000        0.00602238        0.02588478        0.03249011
     189         -0.062532        1.000000        0.00517377        0.02108903        0.03752460
     190         -0.055659        1.000000        0.00014630        0.02213313        0.02766682
     191         -0.051519        1.000000        0.00231544        0.02915321        0.03185498
     192         -0.045639        1.000000        0.00040366        0.01293993        0.03678413
     193          0.052467        0.000000        0.22912162        0.20465119        0.06618410
     194          0.082991        0.000000        0.10309076        0.34872391        0.13569171
     195          0.093868        0.000000        0.23260873        0.18737691        0.04958048
     196          0.104340        0.000000        0.15794015        0.28407547        0.08969065
     197          0.120584        0.000000        0.13372139        0.32398221        0.11729627
     198          0.139298        0.000000        0.16571699        0.25665992        0.07895724
     199          0.141719        0.000000        0.09426265        0.36739932        0.12676380
     200          0.147236        0.000000        0.14499365        0.37175240        0.15666604
     201          0.149496        0.000000        0.10047057        0.33134410        0.12463178
     202          0.151122        0.000000        0.09202984        0.37963133        0.14009489
     203          0.151150        0.000000        0.09012807        0.34136829        0.14894169
     204          0.161156        0.000000        0.12574679        0.28498870        0.12553471
     205          0.182500        0.000000        0.08090058        0.35065010        0.11241844
     206          0.186862        0.000000        0.08998670        0.19763132        0.03871861
     207          0.194037        0.000000        0.08013091        0.30389430        0.13969328
     208          0.195091        0.000000        0.12020016        0.37738130        0.16637353
     209          0.195477        0.000000        0.07843872        0.37280283        0.13572604
     210          0.209085        0.000000        0.08417016        0.18731166        0.06366388
     211          0.216340        0.000000        0.07220893        0.16821008        0.02721881
     212          0.219999        0.000000        0.08914272        0.14619357        0.04624843
     213          0.226406        0.000000        0.06421579        0.25689229        0.14567982
     214          0.231466        0.000000        0.07385829        0.25849566        0.07703861
     215          0.235199        0.000000        0.06675797        0.23569346        0.07419766
     216          0.235627        0.000000        0.06676062        0.21195066        0.07097388
     217          0.246656        0.000000        0.04566565        0.36574265        0.08703266
     218          0.247002        0.000000        0.02868917        0.29578290        0.08010888
     219          0.247241        0.000000        0.07383824        0.26020546        0.16387258
     220          0.252714        0.000000        0.09281039        0.28337928        0.10414680
     221          0.257183        0.000000        0.03883101        0.24301841        0.12804344
     222          0.258274        0.000000        0.03456757        0.26686920        0.06830826
     223          0.259089        0.000000        0.05025118        0.25672094        0.09961368
     224          0.262234        0.000000        0.02212804        0.27643131        0.10103655
     225          0.265168        0.000000        0.03684071        0.28318382        0.14470920
     226          0.266713        0.000000        0.08121855        0.27256000        0.12729025
     227          0.268058        0.000000        0.04040416        0.29227533        0.09867484
     228          0.268516        0.000000        0.02631525        0.28821388        0.09909523
     229          0.270333        0.000000        0.04307522        0.24790070        0.09585720
     230          0.273105        0.000000        0.01096345        0.31367674        0.09032177
     231          0.275911        0.000000        0.04923226        0.20360064        0.09496769
     232          0.278138        0.000000        0.10331841        0.23788225        0.09180468
     233          0.282082        0.000000        0.08999152        0.26992768        0.12392719
     234          0.282270        0.000000        0.07928198        0.28915998        0.14511374
     235          0.282944        0.000000        0.01703027        0.27115835        0.10004794
     236          0.288488        0.000000        0.05102284        0.28286323        0.17454857
     237          0.290212        0.000000        0.06607994        0.22582317        0.14160732
     238          0.301460        0.000000        0.10509311        0.22417064        0.12066948
     239          0.302747        0.000000        0.05552637        0.20591483        0.09146477
     240          0.304542        0.000000        0.07174032        0.23109135        0.12012467
     241          0.306002        0.000000        0.07277111        0.22550765        0.12054983
     242          0.306562        0.000000        0.12618615        0.17837912        0.11512648
     243          0.311743        0.000000        0.06689003        0.16086626        0.06406124
     244          0.313311        0.000000        0.07797490        0.23084499        0.12947183
     245          0.316040        0.000000        0.09659379        0.15769884        0.10687600
     246          0.318426        0.000000        0.03304238        0.29807632        0.14320523
     247          0.321581        0.000000        0.08702394        0.14167454        0.11646621
     248          0.323428        0.000000        0.09948939        0.26062728        0.13468116
     249          0.324245        0.000000        0.10410266        0.18715616        0.15084659
     250          0.328042        0.000000        0.04337130        0.17804824        0.14442591
     251          0.328594        0.000000        0.11659590        0.20373725        0.10760540
     252          0.331892        0.000000        0.08836036        0.20013907        0.20776723
     253          0.333002        0.000000        0.08103562        0.18472330        0.08251094
     254          0.333687        0.000000        0.12232871        0.25311639        0.12000060
     255          0.340182        0.000000        0.04945846        0.23621911        0.20108557
     256          0.343029        0.000000        0.07611067        0.28223302        0.10672700
     257          0.345169        0.000000        0.07799384        0.27189628        0.11644152
     258          0.345775        0.000000        0.02531234        0.19631922        0.28168022
     259          0.347241        0.000000        0.02091559        0.20038591        0.10970191
     260          0.350415        0.000000        0.04525052        0.29320982        0.15519351
     261          0.353093        0.000000        0.05301271        0.18168944        0.25613021
     262          0.356347        0.000000        0.08098494        0.13312819        0.11649411
     263          0.357415        0.000000        0.05093966        0.18454774        0.12817605
     264          0.358140        0.000000        0.04247385        0.21996851        0.09899112
     265          0.361441        0.000000        0.03392715        0.14097968        0.36650076
     266          0.362570        0.000000        0.07134399        0.20954795        0.13839800
     267          0.364083        0.000000        0.04693388        0.13202401        0.25670895
     268          0.369130        0.000000        0.02694020        0.27794684        0.15088999
     269          0.370686        0.000000        0.04420051        0.17833722        0.16790516
     270          0.371586        0.000000        0.02588023        0.17465123        0.21666714
     271          0.373964        0.000000        0.02506917        0.24840065        0.13946871
     272          0.374477        0.000000        0.04577280        0.21573714        0.12387830
     273          0.374658        0.000000        0.06448576        0.21517998        0.10778688
     274          0.378144        0.000000        0.10386450        0.24139481        0.11757179
     275          0.380707        0.000000        0.02556197        0.11111648        0.30867379
     276          0.382802        0.000000        0.02695830        0.27825279        0.16543366
     277          0.384877        0.000000        0.04079725        0.23413293        0.16454330
     278          0.385684        0.000000        0.02197657        0.21395996        0.18822549
     279          0.386872        0.000000        0.05781588        0.18199485        0.15701915
     280          0.387414        0.000000        0.03526321        0.19403982        0.21378172
     281          0.388753        0.000000        0.06104720        0.20834324        0.12295561
     282          0.389136        0.000000        0.06641020        0.19603481        0.13602667
     283          0.390895        0.000000        0.04536930        0.13889822        0.29023774
     284          0.392620        0.000000        0.01308679        0.17890762        0.26469229
     285          0.393740        0.000000        0.05032321        0.20958538        0.18693845
     286          0.398280        0.000000        0.03966775        0.25334369        0.24744948
     287          0.398916        0.000000        0.04239856        0.22426114        0.22843139
     288          0.401742        0.000000        0.05734418        0.14447400        0.10659995
     289          0.405077        0.000000        0.02853294        0.20834056        0.16298237
     290          0.405517        0.000000        0.02997326        0.13086659        0.22304914
     291          0.405958        0.000000        0.01066625        0.21846396        0.27449028
     292          0.407062        0.000000        0.03072401        0.25488579        0.13645616
     293          0.407451        0.000000        0.00889868        0.20888745        0.23430687
     294          0.408740        0.000000        0.01081444        0.34240886        0.15993602
     295          0.409978        0.000000        0.06135722        0.16790217        0.26737158
     296          0.410892        0.000000        0.01882173        0.21572926        0.19041838
     297          0.412525        0.000000        0.02637201        0.20344635        0.21071681
     298          0.415849        0.000000        0.05403243        0.23078839        0.15025414
     299          0.420865        0.000000        0.01909027        0.20944663        0.28673628
     300          0.423129        0.000000        0.04351890        0.19687311        0.19041663
     301          0.424501        0.000000        0.01865018        0.15310041        0.38917140
     302          0.425675        0.000000        0.02413775        0.27978300        0.27852230
     303          0.427394        0.000000        0.02496243        0.15469834        0.33627554
     304          0.428718        0.000000        0.02998485        0.25639190        0.13862403
     305          0.429910        0.000000        0.04101466        0.27238536        0.21338538
     306          0.435213        0.000000        0.00954937        0.23871172        0.15291849
     307          0.435283        0.000000        0.02852688        0.32536884        0.11458495