     139
 i =       32, E =      -869.6630131489
 Al         1.7724475857        1.9456784681        6.7150581999
 Al         5.7581728174        1.9456249296        6.7150487215
  N         3.7651343590        1.9479212980        6.7146860968
  N         7.7512200120        1.9479227252        6.7143097563
 Al         3.7655573422        3.8792988072        6.7119609862
 Al         7.7516995775        3.8794140704        6.7111556769
  N         1.7726741893        3.8769674781        6.7090504984
  N         5.7583358571        3.8770394545        6.7087477776
 Al         1.7727232052        7.7784752729        6.7142185065
 Al         5.7584055756        7.7781004322        6.7144766046
  N         3.7656449188        7.7802439859        6.7140055541
  N         7.7512383600        7.7801323796        6.7132605122
  N         1.7721463225        9.7093858938        6.7106754351
  N         5.7580603415        9.7090413703        6.7109783420
 Al         3.7652846459        9.7114369548        6.7128769721
 Al         7.7511405833        9.7115471338        6.7125157625
 Al         1.7747743353        4.8632899008        8.3657997983
 Al         5.7598716877        4.8642031451        8.3642772428
  N         7.7535612221        4.8604996192        8.3729362221
  N         3.7664081709        4.8604776475        8.3743284071
  N         1.7736474171        6.7977115864        8.3777193787
  N         5.7597693346        6.7962120512        8.3791069947
 Al         7.7534070521        6.7921174914        8.3696299490
 Al         3.7667282175        6.7918591036        8.3702269080
 Al         1.7730307509       10.6935669261        8.3691037768
 Al         5.7590229296       10.6933347227        8.3687563315
  N         3.7656620608       10.6884409050        8.3777050118
  N         7.7519539902       10.6885591365        8.3774779197
  N         1.7726568261        0.9629966381        8.3775234644
  N         5.7591284416        0.9618268670        8.3762345988
 Al         3.7650501499        0.9591513014        8.3706806719
 Al         7.7531769670        0.9589494829        8.3708739792
 Al         1.7763930598        7.7780433849       10.0622230383
 Al         5.7614419893        7.7783412090       10.0623625416
  N         3.7696764574        7.7718404702       10.0352157484
  N         7.7529099649        7.7740157353       10.0332039649
  N         1.7733599418        9.7101247416       10.0321453416
  N         5.7595392300        9.7094712492       10.0308732799
 Al         3.7664295947        9.7070666530       10.0627683038
 Al         7.7532059606        9.7083290184       10.0624520159
 Al         1.7744082155        1.9406739649       10.0679358999
 Al         5.7600124453        1.9332648264       10.0635525890
  N         3.7641098172        1.9371489650       10.0381916939
  N         7.7554641874        1.9369972367       10.0397851934
  N         1.7762322042        3.8758497429       10.0234219272
  N         5.7622344050        3.8583610781       10.0070582371
 Al         3.7671718450        3.8741294859       10.0574830245
 Al         7.7598705779        3.8730255406       10.0523026320
 Al         1.7734200620       10.7538344897       11.6387827410
 Al         5.7591738996       10.7499622700       11.6352679557
  N         3.7650044433       10.6452259913       11.7501966133
  N         7.7528837200       10.6467892018       11.7514181810
  N         1.7735037169        0.9916800136       11.7527163829
  N         5.7578987912        0.9822177705       11.7384384631
 Al         3.7665168272        0.8821636919       11.6343774778
 Al         7.7526565845        0.8847494073       11.6381105992
 Al         1.7803260279        4.9343384877       11.6349507496
 Ga         5.7806505236        4.9059860658       11.7007286420
  N         3.7286751934        4.8278982273       11.7463265882
  N         7.8073893079        4.8336174056       11.7376164124
  N         1.7782450979        6.8476388200       11.7537774196
  N         5.7651604296        6.8832300819       11.7829696242
 Al         3.7660592431        6.7368603655       11.6463493871
 Al         7.7665190709        6.7433554870       11.6433321710
 Al         1.7719600000        1.9440400000        0.0000000000
 Al         1.7719600000        7.7759600000        0.0000000000
 Al         3.7641900000        3.8873100000       -0.0000000000
 Al         5.7564200000        1.9438400000        0.0000000000
 Al         5.7564200000        7.7757600000        0.0000000000
 Al         7.7503300000        3.8871900000       -0.0000000000
  N         1.7721400000        3.8874800000       -0.0000000000
  N         3.7647900000        1.9438000000       -0.0000000000
  N         3.7647900000        7.7757100000       -0.0000000000
  N         5.7564700000        3.8873600000        0.0000000000
  N         7.7500700000        1.9437100000        0.0000000000
  N         7.7500700000        7.7756300000        0.0000000000
  N         1.7721400000        9.7193900000        0.0003100000
  N         5.7564700000        9.7192700000        0.0003100000
 Al         3.7641900000        9.7192200000        0.0003100000
 Al         7.7503300000        9.7191100000        0.0003100000
 Al         1.7719600000        4.8598300000        1.6830800000
 Al         5.7564200000        4.8596300000        1.6830800000
  N         7.7500700000        4.8595000000        1.6830900000
  N         3.7647900000        4.8595900000        1.6830900000
  N         1.7721400000        6.8032600000        1.6831600000
  N         5.7564700000        6.8031400000        1.6831600000
 Al         7.7503300000        6.8029800000        1.6831600000
 Al         3.7642000000        6.8030900000        1.6831600000
 Al         1.7719600000       10.6913200000        1.6831800000
 Al         5.7564200000       10.6911200000        1.6831800000
  N         3.7647900000       10.6910800000        1.6831800000
  N         7.7500700000       10.6909900000        1.6831800000
  N         1.7721400000        0.9715400000        1.6832500000
  N         5.7564700000        0.9714200000        1.6832500000
 Al         3.7642000000        0.9713700000        1.6832600000
 Al         7.7503300000        0.9712600000        1.6832600000
 Al         1.7719600000        7.7751800000        3.3660300000
 Al         5.7564200000        7.7749800000        3.3660300000
  N         3.7647900000        7.7749400000        3.3660300000
  N         7.7500700000        7.7748500000        3.3660300000
  N         1.7721400000        9.7186200000        3.3661100000
  N         5.7564700000        9.7185000000        3.3661100000
 Al         3.7641900000        9.7184500000        3.3661100000
 Al         7.7503300000        9.7183300000        3.3661100000
 Al         1.7719600000        1.9439000000        3.3663700000
 Al         5.7564200000        1.9437000000        3.3663700000
  N         3.7647900000        1.9436600000        3.3663800000
  N         7.7500700000        1.9435700000        3.3663800000
  N         1.7721400000        3.8873300000        3.3664500000
  N         5.7564700000        3.8872100000        3.3664500000
 Al         3.7641900000        3.8871600000        3.3664600000
 Al         7.7503300000        3.8870500000        3.3664600000
 Al         1.7719600000       10.6909700000        5.0492200000
 Al         5.7564200000       10.6907700000        5.0492300000
  N         7.7500700000       10.6906500000        5.0492300000
  N         3.7647900000       10.6907300000        5.0492300000
  N         1.7721400000        0.9712000000        5.0493000000
  N         5.7564700000        0.9710800000        5.0493100000
 Al         7.7503300000        0.9709200000        5.0493100000
 Al         3.7642000000        0.9710300000        5.0493100000
 Al         1.7719600000        4.8592600000        5.0493200000
 Al         5.7564200000        4.8590600000        5.0493200000
  N         3.7647900000        4.8590200000        5.0493300000
  N         7.7500700000        4.8589300000        5.0493300000
  N         1.7721400000        6.8026800000        5.0494000000
  N         5.7564700000        6.8025600000        5.0494000000
 Al         3.7642000000        6.8025200000        5.0494100000
 Al         7.7503300000        6.8024000000        5.0494100000
  C         6.4094743984        1.6820324123       15.4259159890
  C         6.5061800256        2.9488497545       14.5756775480
  C         6.3344273036        4.2344074026       15.3848196663
  H         6.5203120739        0.7765611205       14.8120037047 
  H         5.4364468522        1.6197921532       15.9356974965
  H         7.1902813631        1.6626826471       16.2007364572
  H         5.7432678522        2.8990733725       13.7799853210
  H         7.4749296545        2.9779974268       14.0484663786  
  H         6.4340241871        5.1291643265       14.7525035593
    H         5.3437170906        4.2719124136       15.8614979817
  H         7.0894355898        4.3074798429       16.1815298907