 DBCSR| CPU Multiplication driver                                           XSMM
 DBCSR| Multrec recursion limit                                              512
 DBCSR| Multiplication stack size                                           1000
 DBCSR| Maximum elements for images                                    UNLIMITED
 DBCSR| Multiplicative factor virtual images                                   1
 DBCSR| Use multiplication densification                                       T
 DBCSR| Multiplication size stacks                                             3
 DBCSR| Number of 3D layers                                               SINGLE
 DBCSR| Use MPI memory allocation                                              T
 DBCSR| Use RMA algorithm                                                      F
 DBCSR| Use Communication thread                                               T
 DBCSR| Communication thread load                                             75


  **** **** ******  **  PROGRAM STARTED AT               2022-01-14 06:07:40.353
 ***** ** ***  *** **   PROGRAM STARTED ON                              exp-1-14
 **    ****   ******    PROGRAM STARTED BY                                 moa59
 ***** **    ** ** **   PROGRAM PROCESS ID                                 37445
  **** **  *******  **  PROGRAM STARTED IN /home/moa59/CRC/AlN/NewPathway/step1.
                                           Cb_H/IS/GaDoped/VIB

 CP2K| version string:                                          CP2K version 7.1
 CP2K| source code revision number:                                  git:e635599
 CP2K| cp2kflags: omp libint fftw3 libxc parallel mpi3 scalapack xsmm max_contr=
 CP2K|            4 mkl
 CP2K| is freely available from                            https://www.cp2k.org/
 CP2K| Program compiled at                          Thu Aug 19 14:57:52 PDT 2021
 CP2K| Program compiled on                                              exp-1-11
 CP2K| Program compiled for                                   Linux-x86-64-intel
 CP2K| Data directory path                                /home/moa59/CP2K_Files
 CP2K| Input file name                                                 input.inp
 
 GLOBAL| Force Environment number                                              1
 GLOBAL| Basis set file name                                        BASIS_MOLOPT
 GLOBAL| Potential file name                                      GTH_POTENTIALS
 GLOBAL| MM Potential file name                                     MM_POTENTIAL
 GLOBAL| Coordinate file name                                         solved.xyz
 GLOBAL| Method name                                                        CP2K
 GLOBAL| Project name                                                        VIB
 GLOBAL| Preferred FFT library                                             FFTW3
 GLOBAL| Preferred diagonalization lib.                                       SL
 GLOBAL| Run type                                           VIBRATIONAL_ANALYSIS
 GLOBAL| All-to-all communication in single precision                          F
 GLOBAL| FFTs using library dependent lengths                                  F
 GLOBAL| Global print level                                               MEDIUM
 GLOBAL| MPI I/O enabled                                                       T
 GLOBAL| Total number of message passing processes                           112
 GLOBAL| Number of threads for this process                                    4
 GLOBAL| This output is from process                                           0
 GLOBAL| CPU model name                          AMD EPYC 7742 64-Core Processor
 GLOBAL| CPUID                                                              1002

 MEMORY| system memory details [Kb]
 MEMORY|                        rank 0           min           max       average
 MEMORY| MemTotal            263698228     263698228     263698228     263698228
 MEMORY| MemFree             154142932     154142792     154144584     154143977
 MEMORY| Buffers               1164316       1164316       1164316       1164316
 MEMORY| Cached               83672468      83671964      83672716      83672478
 MEMORY| Slab                  6267992       6267992       6267992       6267992
 MEMORY| SReclaimable          3698728       3698728       3698728       3698728
 MEMORY| MemLikelyFree       242678444     242678304     242680344     242679499


 *** Fundamental physical constants (SI units) ***

 *** Literature: B. J. Mohr and B. N. Taylor,
 ***             CODATA recommended values of the fundamental physical
 ***             constants: 2006, Web Version 5.1
 ***             http://physics.nist.gov/constants

 Speed of light in vacuum [m/s]                             2.99792458000000E+08
 Magnetic constant or permeability of vacuum [N/A**2]       1.25663706143592E-06
 Electric constant or permittivity of vacuum [F/m]          8.85418781762039E-12
 Planck constant (h) [J*s]                                  6.62606896000000E-34
 Planck constant (h-bar) [J*s]                              1.05457162825177E-34
 Elementary charge [C]                                      1.60217648700000E-19
 Electron mass [kg]                                         9.10938215000000E-31
 Electron g factor [ ]                                     -2.00231930436220E+00
 Proton mass [kg]                                           1.67262163700000E-27
 Fine-structure constant                                    7.29735253760000E-03
 Rydberg constant [1/m]                                     1.09737315685270E+07
 Avogadro constant [1/mol]                                  6.02214179000000E+23
 Boltzmann constant [J/K]                                   1.38065040000000E-23
 Atomic mass unit [kg]                                      1.66053878200000E-27
 Bohr radius [m]                                            5.29177208590000E-11

 *** Conversion factors ***

 [u] -> [a.u.]                                              1.82288848426455E+03
 [Angstrom] -> [Bohr] = [a.u.]                              1.88972613288564E+00
 [a.u.] = [Bohr] -> [Angstrom]                              5.29177208590000E-01
 [a.u.] -> [s]                                              2.41888432650478E-17
 [a.u.] -> [fs]                                             2.41888432650478E-02
 [a.u.] -> [J]                                              4.35974393937059E-18
 [a.u.] -> [N]                                              8.23872205491840E-08
 [a.u.] -> [K]                                              3.15774647902944E+05
 [a.u.] -> [kJ/mol]                                         2.62549961709828E+03
 [a.u.] -> [kcal/mol]                                       6.27509468713739E+02
 [a.u.] -> [Pa]                                             2.94210107994716E+13
 [a.u.] -> [bar]                                            2.94210107994716E+08
 [a.u.] -> [atm]                                            2.90362800883016E+08
 [a.u.] -> [eV]                                             2.72113838565563E+01
 [a.u.] -> [Hz]                                             6.57968392072181E+15
 [a.u.] -> [1/cm] (wave numbers)                            2.19474631370540E+05
 [a.u./Bohr**2] -> [1/cm]                                   5.14048714338585E+03
 

 CELL_TOP| Volume [angstrom^3]:                                         2646.615
 CELL_TOP| Vector a [angstrom     7.972     0.000     0.000    |a| =       7.972
 CELL_TOP| Vector b [angstrom     0.000    11.663     0.000    |b| =      11.663
 CELL_TOP| Vector c [angstrom     0.000    -0.004    28.465    |c| =      28.465
 CELL_TOP| Angle (b,c), alpha [degree]:                                   90.008
 CELL_TOP| Angle (a,c), beta  [degree]:                                   90.000
 CELL_TOP| Angle (a,b), gamma [degree]:                                   90.000
 CELL_TOP| Numerically orthorhombic:                                          NO
 
 GENERATE|  Preliminary Number of Bonds generated:                             0
 GENERATE|  Achieved consistency in connectivity generation.

 CELL| Volume [angstrom^3]:                                             2646.615
 CELL| Vector a [angstrom]:       7.972     0.000     0.000    |a| =       7.972
 CELL| Vector b [angstrom]:       0.000    11.663     0.000    |b| =      11.663
 CELL| Vector c [angstrom]:       0.000    -0.004    28.465    |c| =      28.465
 CELL| Angle (b,c), alpha [degree]:                                       90.008
 CELL| Angle (a,c), beta  [degree]:                                       90.000
 CELL| Angle (a,b), gamma [degree]:                                       90.000
 CELL| Numerically orthorhombic:                                              NO

 CELL_REF| Volume [angstrom^3]:                                         2646.615
 CELL_REF| Vector a [angstrom     7.972     0.000     0.000    |a| =       7.972
 CELL_REF| Vector b [angstrom     0.000    11.663     0.000    |b| =      11.663
 CELL_REF| Vector c [angstrom     0.000    -0.004    28.465    |c| =      28.465
 CELL_REF| Angle (b,c), alpha [degree]:                                   90.008
 CELL_REF| Angle (a,c), beta  [degree]:                                   90.000
 CELL_REF| Angle (a,b), gamma [degree]:                                   90.000
 CELL_REF| Numerically orthorhombic:                                          NO

 *******************************************************************************
 *******************************************************************************
 **                                                                           **
 **     #####                         ##              ##                      **
 **    ##   ##            ##          ##              ##                      **
 **   ##     ##                       ##            ######                    **
 **   ##     ##  ##   ##  ##   #####  ##  ##   ####   ##    #####    #####    **
 **   ##     ##  ##   ##  ##  ##      ## ##   ##      ##   ##   ##  ##   ##   **
 **   ##  ## ##  ##   ##  ##  ##      ####     ###    ##   ######   ######    **
 **    ##  ###   ##   ##  ##  ##      ## ##      ##   ##   ##       ##        **
 **     #######   #####   ##   #####  ##  ##  ####    ##    #####   ##        **
 **           ##                                                    ##        **
 **                                                                           **
 **                                                ... make the atoms dance   **
 **                                                                           **
 **            Copyright (C) by CP2K developers group (2000 - 2019)           **
 **                                                                           **
 *******************************************************************************

 DFT| Spin restricted Kohn-Sham (RKS) calculation                            RKS
 DFT| Multiplicity                                                             1
 DFT| Number of spin states                                                    1
 DFT| Charge                                                                   0
 DFT| Self-interaction correction (SIC)                                       NO
 DFT| Cutoffs: density                                              1.000000E-10
 DFT|          gradient                                             1.000000E-10
 DFT|          tau                                                  1.000000E-10
 DFT|          cutoff_smoothing_range                               0.000000E+00
 DFT| XC density smoothing                                                  NONE
 DFT| XC derivatives                                                          PW
 FUNCTIONAL| ROUTINE=NEW
 FUNCTIONAL| PBE:
 FUNCTIONAL| J.P.Perdew, K.Burke, M.Ernzerhof, Phys. Rev. Letter, vol. 77, n 18,
 FUNCTIONAL|  pp. 3865-3868, (1996){spin unpolarized}                           
 vdW POTENTIAL|                                                   Pair Potential
 vdW POTENTIAL|          DFT-D3 (Version 3.1)
 vdW POTENTIAL|          Potential Form: S. Grimme et al, JCP 132: 154104 (2010)
 vdW POTENTIAL|          Zero Damping
 vdW POTENTIAL|          Cutoff Radius [Bohr]:                             28.35
 vdW POTENTIAL|          s6 Scaling Factor:                               1.0000
 vdW POTENTIAL|          sr6 Scaling Factor:                              1.2170
 vdW POTENTIAL|          s8 Scaling Factor:                               0.7220
 vdW POTENTIAL|          Cutoff for CN calculation:                   0.1000E-05

 QS| Method:                                                                 GPW
 QS| Density plane wave grid type                        NON-SPHERICAL FULLSPACE
 QS| Number of grid levels:                                                    4
 QS| Density cutoff [a.u.]:                                                250.0
 QS| Multi grid cutoff [a.u.]: 1) grid level                               250.0
 QS|                           2) grid level                                83.3
 QS|                           3) grid level                                27.8
 QS|                           4) grid level                                 9.3
 QS| Grid level progression factor:                                          3.0
 QS| Relative density cutoff [a.u.]:                                        30.0
 QS| Consistent realspace mapping and integration 
 QS| Interaction thresholds: eps_pgf_orb:                                1.0E-07
 QS|                         eps_filter_matrix:                          0.0E+00
 QS|                         eps_core_charge:                            1.0E-16
 QS|                         eps_rho_gspace:                             1.0E-14
 QS|                         eps_rho_rspace:                             1.0E-14
 QS|                         eps_gvg_rspace:                             1.0E-07
 QS|                         eps_ppl:                                    1.0E-02
 QS|                         eps_ppnl:                                   1.0E-09


 ATOMIC KIND INFORMATION

  1. Atomic kind: Al                                    Number of atoms:      63

     Orbital Basis Set                                     DZVP-MOLOPT-SR-GTH-q3

       Number of orbital shell sets:                                           1
       Number of orbital shells:                                               5
       Number of primitive Cartesian functions:                                4
       Number of Cartesian basis functions:                                   14
       Number of spherical basis functions:                                   13
       Norm type:                                                              2

       Normalised Cartesian orbitals:

                        Set   Shell   Orbital            Exponent    Coefficient

                          1       1    2s                1.212902       0.147703
                                                         0.454181       0.176942
                                                         0.242419      -0.255412
                                                         0.078268      -0.047918

                          1       2    3s                1.212902      -0.205401
                                                         0.454181      -0.282784
                                                         0.242419       0.451246
                                                         0.078268      -0.188270

                          1       3    3px               1.212902       0.054477
                                                         0.454181       0.028713
                                                         0.242419      -0.164201
                                                         0.078268      -0.027375
                          1       3    3py               1.212902       0.054477
                                                         0.454181       0.028713
                                                         0.242419      -0.164201
                                                         0.078268      -0.027375
                          1       3    3pz               1.212902       0.054477
                                                         0.454181       0.028713
                                                         0.242419      -0.164201
                                                         0.078268      -0.027375

                          1       4    4px               1.212902      -0.161995
                                                         0.454181       0.034524
                                                         0.242419       0.284421
                                                         0.078268      -0.077718
                          1       4    4py               1.212902      -0.161995
                                                         0.454181       0.034524
                                                         0.242419       0.284421
                                                         0.078268      -0.077718
                          1       4    4pz               1.212902      -0.161995
                                                         0.454181       0.034524
                                                         0.242419       0.284421
                                                         0.078268      -0.077718

                          1       5    4dx2              1.212902       0.283929
                                                         0.454181       0.086552
                                                         0.242419       0.083045
                                                         0.078268       0.004803
                          1       5    4dxy              1.212902       0.491779
                                                         0.454181       0.149912
                                                         0.242419       0.143839
                                                         0.078268       0.008319
                          1       5    4dxz              1.212902       0.491779
                                                         0.454181       0.149912
                                                         0.242419       0.143839
                                                         0.078268       0.008319
                          1       5    4dy2              1.212902       0.283929
                                                         0.454181       0.086552
                                                         0.242419       0.083045
                                                         0.078268       0.004803
                          1       5    4dyz              1.212902       0.491779
                                                         0.454181       0.149912
                                                         0.242419       0.143839
                                                         0.078268       0.008319
                          1       5    4dz2              1.212902       0.283929
                                                         0.454181       0.086552
                                                         0.242419       0.083045
                                                         0.078268       0.004803

     GTH Potential information for                                    GTH-PBE-q3

       Description:                       Goedecker-Teter-Hutter pseudopotential
                                           Goedecker et al., PRB 54, 1703 (1996)
                                          Hartwigsen et al., PRB 58, 3641 (1998)
                                                      Krack, TCA 114, 145 (2005)

       Gaussian exponent of the core charge distribution:               2.469136
       Electronic configuration (s p d ...):                               2   1

       Parameters of the local part of the GTH pseudopotential:

                          rloc        C1          C2          C3          C4
                        0.450000   -7.554761

       Parameters of the non-local part of the GTH pseudopotential:

                   l      r(l)      h(i,j,l)

                   0    0.487435    6.959938   -1.888836
                                   -1.888836    2.438477
                   1    0.562189    1.865299

  2. Atomic kind: N                                     Number of atoms:      64

     Orbital Basis Set                                        TZVP-MOLOPT-GTH-q5

       Number of orbital shell sets:                                           1
       Number of orbital shells:                                               7
       Number of primitive Cartesian functions:                                7
       Number of Cartesian basis functions:                                   18
       Number of spherical basis functions:                                   17
       Norm type:                                                              2

       Normalised Cartesian orbitals:

                        Set   Shell   Orbital            Exponent    Coefficient

                          1       1    2s                9.042730      -0.237404
                                                         3.882225      -0.265910
                                                         1.512880       0.102064
                                                         0.586631       0.295369
                                                         0.222851       0.088647
                                                         0.084583       0.003860
                                                         0.039194       0.000722

                          1       2    3s                9.042730       0.259152
                                                         3.882225       0.251432
                                                         1.512880      -0.043896
                                                         0.586631      -0.328079
                                                         0.222851       0.175857
                                                         0.084583       0.069169
                                                         0.039194       0.004207

                          1       3    4s                9.042730       0.330627
                                                         3.882225       0.738242
                                                         1.512880      -0.570149
                                                         0.586631       0.474918
                                                         0.222851       0.192885
                                                         0.084583      -0.214824
                                                         0.039194       0.031577

                          1       4    3px               9.042730       0.822162
                                                         3.882225       0.990771
                                                         1.512880       0.665657
                                                         0.586631       0.321705
                                                         0.222851       0.063706
                                                         0.084583       0.004155
                                                         0.039194      -0.000005
                          1       4    3py               9.042730       0.822162
                                                         3.882225       0.990771
                                                         1.512880       0.665657
                                                         0.586631       0.321705
                                                         0.222851       0.063706
                                                         0.084583       0.004155
                                                         0.039194      -0.000005
                          1       4    3pz               9.042730       0.822162
                                                         3.882225       0.990771
                                                         1.512880       0.665657
                                                         0.586631       0.321705
                                                         0.222851       0.063706
                                                         0.084583       0.004155
                                                         0.039194      -0.000005

                          1       5    4px               9.042730      -0.251449
                                                         3.882225      -0.215479
                                                         1.512880      -0.200519
                                                         0.586631      -0.125283
                                                         0.222851       0.136219
                                                         0.084583       0.034362
                                                         0.039194       0.000879
                          1       5    4py               9.042730      -0.251449
                                                         3.882225      -0.215479
                                                         1.512880      -0.200519
                                                         0.586631      -0.125283
                                                         0.222851       0.136219
                                                         0.084583       0.034362
                                                         0.039194       0.000879
                          1       5    4pz               9.042730      -0.251449
                                                         3.882225      -0.215479
                                                         1.512880      -0.200519
                                                         0.586631      -0.125283
                                                         0.222851       0.136219
                                                         0.084583       0.034362
                                                         0.039194       0.000879

                          1       6    5px               9.042730      -1.546561
                                                         3.882225       0.742834
                                                         1.512880      -1.783177
                                                         0.586631       0.969458
                                                         0.222851       0.077327
                                                         0.084583      -0.117711
                                                         0.039194       0.027593
                          1       6    5py               9.042730      -1.546561
                                                         3.882225       0.742834
                                                         1.512880      -1.783177
                                                         0.586631       0.969458
                                                         0.222851       0.077327
                                                         0.084583      -0.117711
                                                         0.039194       0.027593
                          1       6    5pz               9.042730      -1.546561
                                                         3.882225       0.742834
                                                         1.512880      -1.783177
                                                         0.586631       0.969458
                                                         0.222851       0.077327
                                                         0.084583      -0.117711
                                                         0.039194       0.027593

                          1       7    4dx2              9.042730       1.099742
                                                         3.882225       0.532064
                                                         1.512880       0.873643
                                                         0.586631       0.456348
                                                         0.222851       0.017840
                                                         0.084583      -0.000857
                                                         0.039194      -0.000086
                          1       7    4dxy              9.042730       1.904809
                                                         3.882225       0.921562
                                                         1.512880       1.513195
                                                         0.586631       0.790419
                                                         0.222851       0.030900
                                                         0.084583      -0.001484
                                                         0.039194      -0.000150
                          1       7    4dxz              9.042730       1.904809
                                                         3.882225       0.921562
                                                         1.512880       1.513195
                                                         0.586631       0.790419
                                                         0.222851       0.030900
                                                         0.084583      -0.001484
                                                         0.039194      -0.000150
                          1       7    4dy2              9.042730       1.099742
                                                         3.882225       0.532064
                                                         1.512880       0.873643
                                                         0.586631       0.456348
                                                         0.222851       0.017840
                                                         0.084583      -0.000857
                                                         0.039194      -0.000086
                          1       7    4dyz              9.042730       1.904809
                                                         3.882225       0.921562
                                                         1.512880       1.513195
                                                         0.586631       0.790419
                                                         0.222851       0.030900
                                                         0.084583      -0.001484
                                                         0.039194      -0.000150
                          1       7    4dz2              9.042730       1.099742
                                                         3.882225       0.532064
                                                         1.512880       0.873643
                                                         0.586631       0.456348
                                                         0.222851       0.017840
                                                         0.084583      -0.000857
                                                         0.039194      -0.000086

     GTH Potential information for                                    GTH-PBE-q5

       Description:                       Goedecker-Teter-Hutter pseudopotential
                                           Goedecker et al., PRB 54, 1703 (1996)
                                          Hartwigsen et al., PRB 58, 3641 (1998)
                                                      Krack, TCA 114, 145 (2005)

       Gaussian exponent of the core charge distribution:               6.208322
       Electronic configuration (s p d ...):                               2   3

       Parameters of the local part of the GTH pseudopotential:

                          rloc        C1          C2          C3          C4
                        0.283791  -12.415226    1.868096

       Parameters of the non-local part of the GTH pseudopotential:

                   l      r(l)      h(i,j,l)

                   0    0.255405   13.630263
                   1    0.245495

  3. Atomic kind: Ga                                    Number of atoms:       1

     Orbital Basis Set                                    DZVP-MOLOPT-SR-GTH-q13

       Number of orbital shell sets:                                           1
       Number of orbital shells:                                               7
       Number of primitive Cartesian functions:                                6
       Number of Cartesian basis functions:                                   30
       Number of spherical basis functions:                                   25
       Norm type:                                                              2

       Normalised Cartesian orbitals:

                        Set   Shell   Orbital            Exponent    Coefficient

                          1       1    2s                7.066654       0.013136
                                                         3.428369      -0.094392
                                                         1.430064       0.265435
                                                         0.571611       0.056465
                                                         0.232197      -0.192187
                                                         0.076562      -0.044987

                          1       2    3s                7.066654      -0.098564
                                                         3.428369       0.010390
                                                         1.430064       0.351249
                                                         0.571611       0.182615
                                                         0.232197      -0.425358
                                                         0.076562       0.190349

                          1       3    3px               7.066654       0.002364
                                                         3.428369       0.019222
                                                         1.430064       0.250132
                                                         0.571611      -0.058486
                                                         0.232197      -0.159451
                                                         0.076562      -0.020696
                          1       3    3py               7.066654       0.002364
                                                         3.428369       0.019222
                                                         1.430064       0.250132
                                                         0.571611      -0.058486
                                                         0.232197      -0.159451
                                                         0.076562      -0.020696
                          1       3    3pz               7.066654       0.002364
                                                         3.428369       0.019222
                                                         1.430064       0.250132
                                                         0.571611      -0.058486
                                                         0.232197      -0.159451
                                                         0.076562      -0.020696

                          1       4    4px               7.066654       0.492448
                                                         3.428369      -0.614736
                                                         1.430064      -0.191654
                                                         0.571611       0.037801
                                                         0.232197       0.302315
                                                         0.076562      -0.071336
                          1       4    4py               7.066654       0.492448
                                                         3.428369      -0.614736
                                                         1.430064      -0.191654
                                                         0.571611       0.037801
                                                         0.232197       0.302315
                                                         0.076562      -0.071336
                          1       4    4pz               7.066654       0.492448
                                                         3.428369      -0.614736
                                                         1.430064      -0.191654
                                                         0.571611       0.037801
                                                         0.232197       0.302315
                                                         0.076562      -0.071336

                          1       5    4dx2              7.066654     -15.264855
                                                         3.428369      -5.345726
                                                         1.430064      -1.022732
                                                         0.571611      -0.123148
                                                         0.232197      -0.006983
                                                         0.076562      -0.000022
                          1       5    4dxy              7.066654     -26.439504
                                                         3.428369      -9.259069
                                                         1.430064      -1.771423
                                                         0.571611      -0.213299
                                                         0.232197      -0.012094
                                                         0.076562      -0.000037
                          1       5    4dxz              7.066654     -26.439504
                                                         3.428369      -9.259069
                                                         1.430064      -1.771423
                                                         0.571611      -0.213299
                                                         0.232197      -0.012094
                                                         0.076562      -0.000037
                          1       5    4dy2              7.066654     -15.264855
                                                         3.428369      -5.345726
                                                         1.430064      -1.022732
                                                         0.571611      -0.123148
                                                         0.232197      -0.006983
                                                         0.076562      -0.000022
                          1       5    4dyz              7.066654     -26.439504
                                                         3.428369      -9.259069
                                                         1.430064      -1.771423
                                                         0.571611      -0.213299
                                                         0.232197      -0.012094
                                                         0.076562      -0.000037
                          1       5    4dz2              7.066654     -15.264855
                                                         3.428369      -5.345726
                                                         1.430064      -1.022732
                                                         0.571611      -0.123148
                                                         0.232197      -0.006983
                                                         0.076562      -0.000022

                          1       6    5dx2              7.066654      -5.739265
                                                         3.428369      -2.129289
                                                         1.430064      -0.700423
                                                         0.571611       0.161606
                                                         0.232197       0.043513
                                                         0.076562       0.011205
                          1       6    5dxy              7.066654      -9.940698
                                                         3.428369      -3.688037
                                                         1.430064      -1.213168
                                                         0.571611       0.279909
                                                         0.232197       0.075368
                                                         0.076562       0.019407
                          1       6    5dxz              7.066654      -9.940698
                                                         3.428369      -3.688037
                                                         1.430064      -1.213168
                                                         0.571611       0.279909
                                                         0.232197       0.075368
                                                         0.076562       0.019407
                          1       6    5dy2              7.066654      -5.739265
                                                         3.428369      -2.129289
                                                         1.430064      -0.700423
                                                         0.571611       0.161606
                                                         0.232197       0.043513
                                                         0.076562       0.011205
                          1       6    5dyz              7.066654      -9.940698
                                                         3.428369      -3.688037
                                                         1.430064      -1.213168
                                                         0.571611       0.279909
                                                         0.232197       0.075368
                                                         0.076562       0.019407
                          1       6    5dz2              7.066654      -5.739265
                                                         3.428369      -2.129289
                                                         1.430064      -0.700423
                                                         0.571611       0.161606
                                                         0.232197       0.043513
                                                         0.076562       0.011205

                          1       7    5fx3              7.066654       0.705879
                                                         3.428369      -0.273976
                                                         1.430064       0.113667
                                                         0.571611       0.132480
                                                         0.232197       0.012437
                                                         0.076562       0.003241
                          1       7    5fx2y             7.066654       1.578393
                                                         3.428369      -0.612629
                                                         1.430064       0.254167
                                                         0.571611       0.296234
                                                         0.232197       0.027811
                                                         0.076562       0.007246
                          1       7    5fx2z             7.066654       1.578393
                                                         3.428369      -0.612629
                                                         1.430064       0.254167
                                                         0.571611       0.296234
                                                         0.232197       0.027811
                                                         0.076562       0.007246
                          1       7    5fxy2             7.066654       1.578393
                                                         3.428369      -0.612629
                                                         1.430064       0.254167
                                                         0.571611       0.296234
                                                         0.232197       0.027811
                                                         0.076562       0.007246
                          1       7    5fxyz             7.066654       2.733856
                                                         3.428369      -1.061105
                                                         1.430064       0.440230
                                                         0.571611       0.513092
                                                         0.232197       0.048170
                                                         0.076562       0.012551
                          1       7    5fxz2             7.066654       1.578393
                                                         3.428369      -0.612629
                                                         1.430064       0.254167
                                                         0.571611       0.296234
                                                         0.232197       0.027811
                                                         0.076562       0.007246
                          1       7    5fy3              7.066654       0.705879
                                                         3.428369      -0.273976
                                                         1.430064       0.113667
                                                         0.571611       0.132480
                                                         0.232197       0.012437
                                                         0.076562       0.003241
                          1       7    5fy2z             7.066654       1.578393
                                                         3.428369      -0.612629
                                                         1.430064       0.254167
                                                         0.571611       0.296234
                                                         0.232197       0.027811
                                                         0.076562       0.007246
                          1       7    5fyz2             7.066654       1.578393
                                                         3.428369      -0.612629
                                                         1.430064       0.254167
                                                         0.571611       0.296234
                                                         0.232197       0.027811
                                                         0.076562       0.007246
                          1       7    5fz3              7.066654       0.705879
                                                         3.428369      -0.273976
                                                         1.430064       0.113667
                                                         0.571611       0.132480
                                                         0.232197       0.012437
                                                         0.076562       0.003241

     GTH Potential information for                                   GTH-PBE-q13

       Description:                       Goedecker-Teter-Hutter pseudopotential
                                           Goedecker et al., PRB 54, 1703 (1996)
                                          Hartwigsen et al., PRB 58, 3641 (1998)
                                                      Krack, TCA 114, 145 (2005)

       Gaussian exponent of the core charge distribution:               2.082466
       Electronic configuration (s p d ...):                           2   1  10

       Parameters of the local part of the GTH pseudopotential:

                          rloc        C1          C2          C3          C4
                        0.490000

       Parameters of the non-local part of the GTH pseudopotential:

                   l      r(l)      h(i,j,l)

                   0    0.416777   10.475690   -4.921768    0.870706
                                   -4.921768    7.770178   -2.248152
                                    0.870706   -2.248152    1.784415
                   1    0.569627    1.777985    0.195860
                                    0.195860   -0.231744
                   2    0.238126  -16.248680

  4. Atomic kind: C                                     Number of atoms:       3

     Orbital Basis Set                                        TZVP-MOLOPT-GTH-q4

       Number of orbital shell sets:                                           1
       Number of orbital shells:                                               7
       Number of primitive Cartesian functions:                                7
       Number of Cartesian basis functions:                                   18
       Number of spherical basis functions:                                   17
       Norm type:                                                              2

       Normalised Cartesian orbitals:

                        Set   Shell   Orbital            Exponent    Coefficient

                          1       1    2s                6.132625      -0.263661
                                                         2.625196      -0.231112
                                                         1.045457       0.042712
                                                         0.478316       0.306085
                                                         0.178617       0.065483
                                                         0.075145       0.000568
                                                         0.030287       0.000417

                          1       2    3s                6.132625       0.131937
                                                         2.625196       0.414269
                                                         1.045457      -0.593590
                                                         0.478316       0.644922
                                                         0.178617       0.069203
                                                         0.075145      -0.145101
                                                         0.030287       0.008247

                          1       3    4s                6.132625      -1.009391
                                                         2.625196      -0.608763
                                                         1.045457      -0.320627
                                                         0.478316       1.417678
                                                         0.178617      -0.917862
                                                         0.075145       0.286664
                                                         0.030287      -0.031483

                          1       4    3px               6.132625       0.562677
                                                         2.625196       0.633910
                                                         1.045457       0.379157
                                                         0.478316       0.235193
                                                         0.178617       0.052379
                                                         0.075145       0.003677
                                                         0.030287       0.000105
                          1       4    3py               6.132625       0.562677
                                                         2.625196       0.633910
                                                         1.045457       0.379157
                                                         0.478316       0.235193
                                                         0.178617       0.052379
                                                         0.075145       0.003677
                                                         0.030287       0.000105
                          1       4    3pz               6.132625       0.562677
                                                         2.625196       0.633910
                                                         1.045457       0.379157
                                                         0.478316       0.235193
                                                         0.178617       0.052379
                                                         0.075145       0.003677
                                                         0.030287       0.000105

                          1       5    4px               6.132625      -0.472364
                                                         2.625196      -0.221326
                                                         1.045457      -0.481781
                                                         0.478316       0.135466
                                                         0.178617       0.072281
                                                         0.075145       0.024920
                                                         0.030287       0.002706
                          1       5    4py               6.132625      -0.472364
                                                         2.625196      -0.221326
                                                         1.045457      -0.481781
                                                         0.478316       0.135466
                                                         0.178617       0.072281
                                                         0.075145       0.024920
                                                         0.030287       0.002706
                          1       5    4pz               6.132625      -0.472364
                                                         2.625196      -0.221326
                                                         1.045457      -0.481781
                                                         0.478316       0.135466
                                                         0.178617       0.072281
                                                         0.075145       0.024920
                                                         0.030287       0.002706

                          1       6    5px               6.132625      -0.321125
                                                         2.625196      -0.513960
                                                         1.045457      -0.659092
                                                         0.478316       1.236398
                                                         0.178617      -0.279443
                                                         0.075145       0.042466
                                                         0.030287      -0.008547
                          1       6    5py               6.132625      -0.321125
                                                         2.625196      -0.513960
                                                         1.045457      -0.659092
                                                         0.478316       1.236398
                                                         0.178617      -0.279443
                                                         0.075145       0.042466
                                                         0.030287      -0.008547
                          1       6    5pz               6.132625      -0.321125
                                                         2.625196      -0.513960
                                                         1.045457      -0.659092
                                                         0.478316       1.236398
                                                         0.178617      -0.279443
                                                         0.075145       0.042466
                                                         0.030287      -0.008547

                          1       7    4dx2              6.132625       0.874783
                                                         2.625196       0.375772
                                                         1.045457       0.653959
                                                         0.478316       0.191007
                                                         0.178617       0.018656
                                                         0.075145       0.003649
                                                         0.030287      -0.000011
                          1       7    4dxy              6.132625       1.515169
                                                         2.625196       0.650856
                                                         1.045457       1.132690
                                                         0.478316       0.330834
                                                         0.178617       0.032314
                                                         0.075145       0.006321
                                                         0.030287      -0.000019
                          1       7    4dxz              6.132625       1.515169
                                                         2.625196       0.650856
                                                         1.045457       1.132690
                                                         0.478316       0.330834
                                                         0.178617       0.032314
                                                         0.075145       0.006321
                                                         0.030287      -0.000019
                          1       7    4dy2              6.132625       0.874783
                                                         2.625196       0.375772
                                                         1.045457       0.653959
                                                         0.478316       0.191007
                                                         0.178617       0.018656
                                                         0.075145       0.003649
                                                         0.030287      -0.000011
                          1       7    4dyz              6.132625       1.515169
                                                         2.625196       0.650856
                                                         1.045457       1.132690
                                                         0.478316       0.330834
                                                         0.178617       0.032314
                                                         0.075145       0.006321
                                                         0.030287      -0.000019
                          1       7    4dz2              6.132625       0.874783
                                                         2.625196       0.375772
                                                         1.045457       0.653959
                                                         0.478316       0.191007
                                                         0.178617       0.018656
                                                         0.075145       0.003649
                                                         0.030287      -0.000011

     GTH Potential information for                                    GTH-PBE-q4

       Description:                       Goedecker-Teter-Hutter pseudopotential
                                           Goedecker et al., PRB 54, 1703 (1996)
                                          Hartwigsen et al., PRB 58, 3641 (1998)
                                                      Krack, TCA 114, 145 (2005)

       Gaussian exponent of the core charge distribution:               4.364419
       Electronic configuration (s p d ...):                               2   2

       Parameters of the local part of the GTH pseudopotential:

                          rloc        C1          C2          C3          C4
                        0.338471   -8.803674    1.339211

       Parameters of the non-local part of the GTH pseudopotential:

                   l      r(l)      h(i,j,l)

                   0    0.302576    9.622487
                   1    0.291507

  5. Atomic kind: H                                     Number of atoms:       8

     Orbital Basis Set                                        TZVP-MOLOPT-GTH-q1

       Number of orbital shell sets:                                           1
       Number of orbital shells:                                               4
       Number of primitive Cartesian functions:                                7
       Number of Cartesian basis functions:                                    6
       Number of spherical basis functions:                                    6
       Norm type:                                                              2

       Normalised Cartesian orbitals:

                        Set   Shell   Orbital            Exponent    Coefficient

                          1       1    2s               11.478000       0.129129
                                                         3.700759       0.177012
                                                         1.446884       0.141285
                                                         0.716815       0.245670
                                                         0.247919       0.094768
                                                         0.066918       0.004062
                                                         0.021708      -0.000053

                          1       2    3s               11.478000      -0.079256
                                                         3.700759      -0.152992
                                                         1.446884       0.015066
                                                         0.716815      -0.331234
                                                         0.247919       0.210690
                                                         0.066918       0.058630
                                                         0.021708      -0.003429

                          1       3    4s               11.478000      -0.246880
                                                         3.700759       0.023016
                                                         1.446884      -1.109374
                                                         0.716815       1.524652
                                                         0.247919      -0.227968
                                                         0.066918      -0.037343
                                                         0.021708       0.005696

                          1       4    3px              11.478000       0.325290
                                                         3.700759       0.187466
                                                         1.446884       0.443300
                                                         0.716815       0.267738
                                                         0.247919       0.088285
                                                         0.066918       0.019092
                                                         0.021708       0.000629
                          1       4    3py              11.478000       0.325290
                                                         3.700759       0.187466
                                                         1.446884       0.443300
                                                         0.716815       0.267738
                                                         0.247919       0.088285
                                                         0.066918       0.019092
                                                         0.021708       0.000629
                          1       4    3pz              11.478000       0.325290
                                                         3.700759       0.187466
                                                         1.446884       0.443300
                                                         0.716815       0.267738
                                                         0.247919       0.088285
                                                         0.066918       0.019092
                                                         0.021708       0.000629

     GTH Potential information for                                    GTH-PBE-q1

       Description:                       Goedecker-Teter-Hutter pseudopotential
                                           Goedecker et al., PRB 54, 1703 (1996)
                                          Hartwigsen et al., PRB 58, 3641 (1998)
                                                      Krack, TCA 114, 145 (2005)

       Gaussian exponent of the core charge distribution:              12.500000
       Electronic configuration (s p d ...):                                   1

       Parameters of the local part of the GTH pseudopotential:

                          rloc        C1          C2          C3          C4
                        0.200000   -4.178900    0.724463


 MOLECULE KIND INFORMATION


 All atoms are their own molecule, skipping detailed information


 TOTAL NUMBERS AND MAXIMUM NUMBERS

  Total number of            - Atomic kinds:                                   5
                             - Atoms:                                        139
                             - Shell sets:                                   139
                             - Shells:                                       823
                             - Primitive Cartesian functions:                783
                             - Cartesian basis functions:                   2166
                             - Spherical basis functions:                   2031

  Maximum angular momentum of- Orbital basis functions:                        3
                             - Local part of the GTH pseudopotential:          2
                             - Non-local part of the GTH pseudopotential:      4


 MODULE QUICKSTEP:  ATOMIC COORDINATES IN angstrom

  Atom  Kind  Element       X           Y           Z          Z(eff)       Mass

       1     1 Al  13    1.773182    1.949918    6.717636      3.00      26.9815
       2     1 Al  13    5.758331    1.949809    6.717721      3.00      26.9815
       3     2 N    7    3.765684    1.951686    6.716982      5.00      14.0067
       4     2 N    7    7.751534    1.951408    6.715935      5.00      14.0067
       5     1 Al  13    3.766127    3.884735    6.719083      3.00      26.9815
       6     1 Al  13    7.751918    3.884818    6.718261      3.00      26.9815
       7     2 N    7    1.772895    3.883251    6.717533      5.00      14.0067
       8     2 N    7    5.758808    3.883759    6.717469      5.00      14.0067
       9     1 Al  13    1.773099    7.781833    6.716210      3.00      26.9815
      10     1 Al  13    5.758699    7.781363    6.716372      3.00      26.9815
      11     2 N    7    3.765897    7.783279    6.715583      5.00      14.0067
      12     2 N    7    7.751605    7.783131    6.714976      5.00      14.0067
      13     2 N    7    1.772614    9.715032    6.716922      5.00      14.0067
      14     2 N    7    5.758516    9.714792    6.717177      5.00      14.0067
      15     1 Al  13    3.765670    9.717045    6.718298      3.00      26.9815
      16     1 Al  13    7.751665    9.717051    6.717791      3.00      26.9815
      17     1 Al  13    1.775750    4.869119    8.378367      3.00      26.9815
      18     1 Al  13    5.760972    4.870023    8.378484      3.00      26.9815
      19     2 N    7    7.754511    4.865907    8.384631      5.00      14.0067
      20     2 N    7    3.767276    4.865326    8.385856      5.00      14.0067
      21     2 N    7    1.774470    6.805775    8.384036      5.00      14.0067
      22     2 N    7    5.760357    6.804439    8.385262      5.00      14.0067
      23     1 Al  13    7.754066    6.799206    8.375848      3.00      26.9815
      24     1 Al  13    3.767611    6.799151    8.376420      3.00      26.9815
      25     1 Al  13    1.774072   10.703869    8.375988      3.00      26.9815
      26     1 Al  13    5.759443   10.703715    8.375573      3.00      26.9815
      27     2 N    7    3.766219   10.698723    8.383716      5.00      14.0067
      28     2 N    7    7.752779   10.698604    8.383376      5.00      14.0067
      29     2 N    7    1.774216    0.976427    8.386724      5.00      14.0067
      30     2 N    7    5.759258    0.974952    8.386406      5.00      14.0067
      31     1 Al  13    3.766031    0.971753    8.381996      3.00      26.9815
      32     1 Al  13    7.753976    0.971496    8.379845      3.00      26.9815
      33     1 Al  13    1.777608    7.787549   10.069738      3.00      26.9815
      34     1 Al  13    5.762738    7.787570   10.069720      3.00      26.9815
      35     2 N    7    3.770632    7.781750   10.043105      5.00      14.0067
      36     2 N    7    7.753967    7.782099   10.041728      5.00      14.0067
      37     2 N    7    1.775268    9.721478   10.042524      5.00      14.0067
      38     2 N    7    5.760073    9.721978   10.041383      5.00      14.0067
      39     1 Al  13    3.768234    9.720104   10.073428      3.00      26.9815
      40     1 Al  13    7.754032    9.718990   10.072197      3.00      26.9815
      41     1 Al  13    1.776303    1.952337   10.082146      3.00      26.9815
      42     1 Al  13    5.761490    1.945709   10.079472      3.00      26.9815
      43     2 N    7    3.765718    1.949534   10.057329      5.00      14.0067
      44     2 N    7    7.757019    1.949390   10.051269      5.00      14.0067
      45     2 N    7    1.776965    3.891712   10.046595      5.00      14.0067
      46     2 N    7    5.764257    3.874142   10.032643      5.00      14.0067
      47     1 Al  13    3.771620    3.888409   10.079581      3.00      26.9815
      48     1 Al  13    7.758892    3.886079   10.073690      3.00      26.9815
      49     1 Al  13    1.775428   10.764620   11.650124      3.00      26.9815
      50     1 Al  13    5.761388   10.762579   11.648333      3.00      26.9815
      51     2 N    7    3.767665   10.658165   11.766037      5.00      14.0067
      52     2 N    7    7.754329   10.653534   11.763458      5.00      14.0067
      53     2 N    7    1.772574    1.001580   11.765117      5.00      14.0067
      54     2 N    7    5.764095    0.997379   11.758150      5.00      14.0067
      55     1 Al  13    3.767323    0.899226   11.661165      3.00      26.9815
      56     1 Al  13    7.755551    0.892912   11.648690      3.00      26.9815
      57     1 Al  13    1.782043    4.945584   11.659615      3.00      26.9815
      58     3 Ga  31    5.786583    4.913393   11.749163     13.00      69.7230
      59     2 N    7    3.731427    4.840811   11.773936      5.00      14.0067
      60     2 N    7    7.808633    4.842527   11.772397      5.00      14.0067
      61     2 N    7    1.779175    6.858655   11.765402      5.00      14.0067
      62     2 N    7    5.766446    6.895743   11.793264      5.00      14.0067
      63     1 Al  13    3.769531    6.750091   11.655938      3.00      26.9815
      64     1 Al  13    7.766634    6.756880   11.657354      3.00      26.9815
      65     1 Al  13    1.771960    1.944040    0.000000      3.00      26.9815
      66     1 Al  13    1.771960    7.775970    0.000000      3.00      26.9815
      67     1 Al  13    3.764190    3.887310    0.000000      3.00      26.9815
      68     1 Al  13    5.756420    1.943840    0.000000      3.00      26.9815
      69     1 Al  13    5.756420    7.775770    0.000000      3.00      26.9815
      70     1 Al  13    7.750340    3.887190    0.000000      3.00      26.9815
      71     2 N    7    1.772140    3.887480    0.000000      5.00      14.0067
      72     2 N    7    3.764790    1.943800    0.000000      5.00      14.0067
      73     2 N    7    3.764790    7.775720    0.000000      5.00      14.0067
      74     2 N    7    5.756470    3.887360    0.000000      5.00      14.0067
      75     2 N    7    7.750080    1.943710    0.000000      5.00      14.0067
      76     2 N    7    7.750080    7.775640    0.000000      5.00      14.0067
      77     2 N    7    1.772140    9.719400    0.000310      5.00      14.0067
      78     2 N    7    5.756470    9.719280    0.000310      5.00      14.0067
      79     1 Al  13    3.764190    9.719230    0.000310      3.00      26.9815
      80     1 Al  13    7.750340    9.719120    0.000310      3.00      26.9815
      81     1 Al  13    1.771960    4.859830    1.683080      3.00      26.9815
      82     1 Al  13    5.756420    4.859630    1.683080      3.00      26.9815
      83     2 N    7    7.750080    4.859500    1.683090      5.00      14.0067
      84     2 N    7    3.764790    4.859590    1.683090      5.00      14.0067
      85     2 N    7    1.772140    6.803270    1.683160      5.00      14.0067
      86     2 N    7    5.756470    6.803150    1.683160      5.00      14.0067
      87     1 Al  13    7.750340    6.802990    1.683160      3.00      26.9815
      88     1 Al  13    3.764200    6.803100    1.683160      3.00      26.9815
      89     1 Al  13    1.771960   10.691330    1.683180      3.00      26.9815
      90     1 Al  13    5.756420   10.691130    1.683180      3.00      26.9815
      91     2 N    7    3.764790   10.691090    1.683180      5.00      14.0067
      92     2 N    7    7.750080   10.691000    1.683180      5.00      14.0067
      93     2 N    7    1.772140    0.971540    1.683250      5.00      14.0067
      94     2 N    7    5.756470    0.971420    1.683250      5.00      14.0067
      95     1 Al  13    3.764200    0.971370    1.683260      3.00      26.9815
      96     1 Al  13    7.750340    0.971260    1.683260      3.00      26.9815
      97     1 Al  13    1.771960    7.775190    3.366030      3.00      26.9815
      98     1 Al  13    5.756420    7.774990    3.366030      3.00      26.9815
      99     2 N    7    3.764790    7.774950    3.366030      5.00      14.0067
     100     2 N    7    7.750080    7.774860    3.366030      5.00      14.0067
     101     2 N    7    1.772140    9.718630    3.366110      5.00      14.0067
     102     2 N    7    5.756470    9.718510    3.366110      5.00      14.0067
     103     1 Al  13    3.764190    9.718460    3.366110      3.00      26.9815
     104     1 Al  13    7.750340    9.718340    3.366110      3.00      26.9815
     105     1 Al  13    1.771960    1.943900    3.366370      3.00      26.9815
     106     1 Al  13    5.756420    1.943700    3.366370      3.00      26.9815
     107     2 N    7    3.764790    1.943660    3.366380      5.00      14.0067
     108     2 N    7    7.750080    1.943570    3.366380      5.00      14.0067
     109     2 N    7    1.772140    3.887330    3.366450      5.00      14.0067
     110     2 N    7    5.756470    3.887210    3.366450      5.00      14.0067
     111     1 Al  13    3.764190    3.887160    3.366460      3.00      26.9815
     112     1 Al  13    7.750340    3.887050    3.366460      3.00      26.9815
     113     1 Al  13    1.771960   10.690980    5.049220      3.00      26.9815
     114     1 Al  13    5.756420   10.690780    5.049230      3.00      26.9815
     115     2 N    7    7.750080   10.690660    5.049230      5.00      14.0067
     116     2 N    7    3.764790   10.690740    5.049230      5.00      14.0067
     117     2 N    7    1.772140    0.971200    5.049300      5.00      14.0067
     118     2 N    7    5.756470    0.971080    5.049310      5.00      14.0067
     119     1 Al  13    7.750340    0.970920    5.049310      3.00      26.9815
     120     1 Al  13    3.764200    0.971030    5.049310      3.00      26.9815
     121     1 Al  13    1.771960    4.859260    5.049320      3.00      26.9815
     122     1 Al  13    5.756420    4.859060    5.049320      3.00      26.9815
     123     2 N    7    3.764790    4.859020    5.049330      5.00      14.0067
     124     2 N    7    7.750080    4.858930    5.049330      5.00      14.0067
     125     2 N    7    1.772140    6.802690    5.049400      5.00      14.0067
     126     2 N    7    5.756470    6.802570    5.049400      5.00      14.0067
     127     1 Al  13    3.764200    6.802530    5.049410      3.00      26.9815
     128     1 Al  13    7.750340    6.802410    5.049410      3.00      26.9815
     129     4 C    6    5.430070    4.507110   15.278287      4.00      12.0107
     130     4 C    6    5.494330    3.052589   14.807659      4.00      12.0107
     131     4 C    6    4.117732    2.394509   14.723710      4.00      12.0107
     132     5 H    1    6.422614    4.979652   15.273168      1.00       1.0079
     133     5 H    1    5.976871    2.991331   13.816173      1.00       1.0079
     134     5 H    1    4.769454    5.102734   14.629530      1.00       1.0079
     135     5 H    1    5.029505    4.575698   16.300887      1.00       1.0079
     136     5 H    1    6.145834    2.473761   15.482475      1.00       1.0079
     137     5 H    1    4.197527    1.332729   14.440842      1.00       1.0079
     138     5 H    1    3.485326    2.910957   13.983833      1.00       1.0079
     139     5 H    1    3.589655    2.432963   15.688805      1.00       1.0079




 SCF PARAMETERS         Density guess:                                    ATOMIC
                        --------------------------------------------------------
                        max_scf:                                             500
                        max_scf_history:                                       0
                        max_diis:                                              4
                        --------------------------------------------------------
                        eps_scf:                                        1.00E-07
                        eps_scf_history:                                0.00E+00
                        eps_diis:                                       1.00E-01
                        eps_eigval:                                     1.00E-05
                        --------------------------------------------------------
                        level_shift [a.u.]:                                 0.00
                        added MOs                                       200    0
                        --------------------------------------------------------
                        Mixing method:                            BROYDEN_MIXING
                                                charge density mixing in g-space
                        --------------------------------------------------------
                        Smear method:                                FERMI_DIRAC
                        Electronic temperature [K]:                        700.0
                        Electronic temperature [a.u.]:                  2.22E-03
                        Accuracy threshold:                             1.00E-10
[...]


 VIB|                        19                   20                   21
 VIB|Frequency (cm^-1)  1340.451453          1365.957460          1438.328856
 VIB|Intensities           0.000000             0.000000             0.000000
 VIB|Red.Masses (a.u.)     1.329928             1.242216             1.042103
 VIB|Frc consts (a.u.)     0.010993             0.011072             0.011419
  ATOM  EL             X     Y     Z        X     Y     Z        X     Y     Z  
   129  C            -0.02 -0.07 -0.03     0.00 -0.12 -0.04     0.01 -0.02  0.03
   130  C             0.05  0.07  0.02    -0.01  0.01 -0.00    -0.00  0.02  0.01
   131  C            -0.10 -0.08 -0.01     0.07  0.03  0.00    -0.02  0.01 -0.03
   132  H            -0.13  0.16  0.13    -0.25  0.44  0.18    -0.04  0.11 -0.49
   133  H            -0.11 -0.15 -0.04    -0.02 -0.00  0.01     0.10 -0.07  0.05
   134  H             0.08  0.22  0.13     0.15  0.36  0.26     0.18  0.28  0.09
   135  H             0.12  0.25  0.01     0.09  0.47 -0.03    -0.35 -0.15 -0.10
   136  H            -0.18 -0.25 -0.05    -0.01  0.01 -0.01     0.05 -0.09 -0.12
   137  H             0.41  0.00 -0.09    -0.27 -0.01  0.03    -0.01 -0.12  0.43
   138  H             0.32  0.33 -0.06    -0.20 -0.16  0.09     0.16  0.25  0.01
   139  H             0.30  0.33  0.18    -0.23 -0.13 -0.15     0.04 -0.36  0.03


 VIB|                        22                   23                   24
 VIB|Frequency (cm^-1)  1445.843248          1457.577357          1468.435185
 VIB|Intensities           0.000000             0.000000             0.000000
 VIB|Red.Masses (a.u.)     1.054014             1.050056             1.051648
 VIB|Frc consts (a.u.)     0.011792             0.012134             0.012519
  ATOM  EL             X     Y     Z        X     Y     Z        X     Y     Z  
   129  C            -0.00  0.00  0.00    -0.01  0.01 -0.03     0.04 -0.01 -0.01
   130  C            -0.05  0.03  0.02    -0.03  0.02 -0.02     0.01  0.03  0.01
   131  C             0.01 -0.01  0.00    -0.01  0.02 -0.02    -0.01  0.03  0.03
   132  H             0.02 -0.06 -0.03     0.04 -0.09  0.46     0.11 -0.21 -0.02
   133  H             0.42 -0.40  0.26     0.16 -0.13  0.07    -0.01 -0.08  0.00
   134  H            -0.06  0.00  0.07    -0.18 -0.25 -0.07    -0.33  0.00  0.35
   135  H            -0.08  0.04 -0.04     0.30  0.19  0.10    -0.34  0.25 -0.16
   136  H             0.39 -0.10 -0.49     0.07 -0.01 -0.14    -0.01 -0.06 -0.04
   137  H             0.10  0.05 -0.15    -0.07 -0.11  0.42    -0.26  0.04 -0.19
   138  H            -0.16 -0.02  0.13     0.20  0.22 -0.05     0.19 -0.30 -0.38
   139  H            -0.10  0.25 -0.07     0.05 -0.41  0.04     0.26 -0.14  0.17


 VIB|                        25                   26                   27
 VIB|Frequency (cm^-1)  1478.241331          2902.365912          2938.169408
 VIB|Intensities           0.000000             0.000000             0.000000
 VIB|Red.Masses (a.u.)     1.055400             1.050075             1.054131
 VIB|Frc consts (a.u.)     0.012902             0.190766             0.201129
  ATOM  EL             X     Y     Z        X     Y     Z        X     Y     Z  
   129  C            -0.03 -0.01  0.01    -0.01  0.03  0.02    -0.00 -0.03 -0.00
   130  C            -0.03  0.02  0.02     0.03 -0.02 -0.01     0.04 -0.02 -0.03
   131  C            -0.01  0.02  0.02     0.02  0.01  0.02    -0.01  0.00  0.00
   132  H            -0.13  0.26 -0.04    -0.23 -0.10  0.00     0.34  0.15 -0.00
   133  H             0.10 -0.08  0.07    -0.16  0.02  0.35    -0.31  0.03  0.64
   134  H             0.36  0.06 -0.34     0.20 -0.17  0.19    -0.21  0.18 -0.20
   135  H             0.29 -0.25  0.15     0.17 -0.05 -0.43    -0.10  0.01  0.25
   136  H             0.11 -0.03 -0.13    -0.24  0.21 -0.26    -0.18  0.17 -0.22
   137  H            -0.24  0.04 -0.20     0.04 -0.32 -0.07    -0.00  0.05  0.02
   138  H             0.18 -0.28 -0.36    -0.21  0.19 -0.30     0.08 -0.07  0.10
   139  H             0.27 -0.11  0.17    -0.05 -0.00  0.10     0.08 -0.01 -0.17


 VIB|                        28                   29                   30
 VIB|Frequency (cm^-1)  2956.757139          2973.694477          3000.630263
 VIB|Intensities           0.000000             0.000000             0.000000
 VIB|Red.Masses (a.u.)     1.042861             1.096597             1.101797
 VIB|Frc consts (a.u.)     0.204061             0.219535             0.228678
  ATOM  EL             X     Y     Z        X     Y     Z        X     Y     Z  
   129  C             0.01 -0.02 -0.02    -0.00  0.00 -0.03    -0.00  0.00 -0.02
   130  C            -0.01  0.00 -0.00     0.02 -0.03  0.07     0.01 -0.01  0.02
   131  C             0.04  0.01 -0.02    -0.01  0.02 -0.01     0.03 -0.08  0.02
   132  H             0.19  0.09 -0.00     0.03  0.01 -0.01     0.05  0.02 -0.01
   133  H             0.02 -0.00 -0.04     0.20 -0.03 -0.39     0.03 -0.00 -0.07
   134  H            -0.14  0.12 -0.14     0.09 -0.08  0.09     0.04 -0.03  0.04
   135  H            -0.13  0.03  0.34    -0.11  0.02  0.26    -0.07  0.01  0.17
   136  H             0.04 -0.03  0.04    -0.46  0.41 -0.48    -0.11  0.10 -0.12
   137  H             0.04 -0.36 -0.11     0.01 -0.10 -0.03    -0.06  0.68  0.19
   138  H            -0.22  0.18 -0.22     0.15 -0.13  0.17    -0.36  0.29 -0.44
   139  H            -0.31  0.04  0.62    -0.01  0.00  0.01     0.02 -0.02 -0.01


 VIB|                        31                   32                   33
 VIB|Frequency (cm^-1)  3020.997293          3033.606616          3056.736210
 VIB|Intensities           0.000000             0.000000             0.000000
 VIB|Red.Masses (a.u.)     1.102312             1.097127             1.089064
 VIB|Frc consts (a.u.)     0.235060             0.237885             0.243421
  ATOM  EL             X     Y     Z        X     Y     Z        X     Y     Z  
   129  C            -0.08  0.01 -0.04    -0.03 -0.01  0.05     0.03  0.03 -0.04
   130  C            -0.01  0.01 -0.01     0.01 -0.01  0.01     0.01  0.00 -0.03
   131  C            -0.00  0.00 -0.00     0.01 -0.02 -0.06     0.00 -0.01 -0.05
   132  H             0.57  0.27 -0.01     0.25  0.11  0.01    -0.47 -0.21 -0.01
   133  H            -0.04  0.00  0.06     0.01 -0.01 -0.02    -0.14  0.02  0.32
   134  H             0.43 -0.40  0.44    -0.11  0.08 -0.08     0.23 -0.19  0.20
   135  H            -0.04  0.00  0.05     0.21 -0.02 -0.54    -0.12 -0.00  0.33
   136  H             0.10 -0.09  0.11    -0.09  0.08 -0.09     0.04 -0.03  0.03
   137  H             0.00 -0.04 -0.01    -0.03  0.37  0.09    -0.02  0.27  0.07
   138  H             0.02 -0.02  0.03     0.19 -0.16  0.18     0.21 -0.17  0.19
   139  H            -0.00  0.00  0.01    -0.26  0.01  0.47    -0.20  0.00  0.35



 -------------------------------------------------------------------------------
 -                                                                             -
 -                                DBCSR STATISTICS                             -
 -                                                                             -
 -------------------------------------------------------------------------------
 COUNTER                                    TOTAL       BLAS       SMM       ACC
 flops     6 x    23 x     6             33914880       0.0%    100.0%      0.0%
 flops     6 x    25 x    55            215424000       0.0%    100.0%      0.0%
 flops     6 x     6 x    55            465315840       0.0%    100.0%      0.0%
 flops    13 x    23 x     6            578672640       0.0%    100.0%      0.0%
 flops     6 x    23 x    13            578672640       0.0%    100.0%      0.0%
 flops     6 x    32 x     6            660602880       0.0%    100.0%      0.0%
 flops    17 x    23 x     6            804771840       0.0%    100.0%      0.0%
 flops     6 x    23 x    17            804771840       0.0%    100.0%      0.0%
 flops     6 x    25 x    32           1629388800       0.0%    100.0%      0.0%
 flops     6 x     6 x    32           3519479808       0.0%    100.0%      0.0%
 flops    13 x    25 x    55           3617328000       0.0%    100.0%      0.0%
 flops    17 x    25 x    55           5188128000       0.0%    100.0%      0.0%
 flops     6 x    13 x    55           7057290240       0.0%    100.0%      0.0%
 flops    13 x     6 x    55           7057290240       0.0%    100.0%      0.0%
 flops     6 x    17 x    55           9814717440       0.0%    100.0%      0.0%
 flops    17 x     6 x    55           9814717440       0.0%    100.0%      0.0%
 flops    13 x    23 x    13           9873601920       0.0%    100.0%      0.0%
 flops    13 x    32 x     6          11271536640       0.0%    100.0%      0.0%
 flops     6 x    32 x    13          11271536640       0.0%    100.0%      0.0%
 flops    17 x    23 x    13          13731419520       0.0%    100.0%      0.0%
 flops    13 x    23 x    17          13731419520       0.0%    100.0%      0.0%
 flops    17 x    32 x     6          15675555840       0.0%    100.0%      0.0%
 flops     6 x    32 x    17          15675555840       0.0%    100.0%      0.0%
 flops    17 x    23 x    17          19096565120       0.0%    100.0%      0.0%
 flops    13 x    25 x    32          27360153600       0.0%    100.0%      0.0%
 flops    17 x    25 x    32          39241113600       0.0%    100.0%      0.0%
 flops     6 x    13 x    32          53378777088       0.0%    100.0%      0.0%
 flops    13 x     6 x    32          53378777088       0.0%    100.0%      0.0%
 flops     6 x    17 x    32          74234953728       0.0%    100.0%      0.0%
 flops    17 x     6 x    32          74234953728       0.0%    100.0%      0.0%
 flops    13 x    13 x    55         122326364160       0.0%    100.0%      0.0%
 flops    17 x    13 x    55         167423942400       0.0%    100.0%      0.0%
 flops    13 x    17 x    55         167503290240       0.0%    100.0%      0.0%
 flops    13 x    32 x    13         192320593920       0.0%    100.0%      0.0%
 flops    17 x    17 x    55         236371111680       0.0%    100.0%      0.0%
 flops    17 x    32 x    13         267464171520       0.0%    100.0%      0.0%
 flops    13 x    32 x    17         267464171520       0.0%    100.0%      0.0%
 flops    17 x    32 x    17         371967877120       0.0%    100.0%      0.0%
 flops    13 x    13 x    32         925232136192       0.0%    100.0%      0.0%
 flops    17 x    13 x    32        1266333818880       0.0%    100.0%      0.0%
 flops    13 x    17 x    32        1266933977088       0.0%    100.0%      0.0%
 flops    17 x    17 x    32        1787825135616       0.0%    100.0%      0.0%
 flops inhomo. stacks                201439296000     100.0%      0.0%      0.0%
 flops total                         7.724602E+12       2.6%     97.4%      0.0%
 flops max/rank                     82.204061E+09       6.4%     93.6%      0.0%
 matmuls inhomo. stacks                   4528320     100.0%      0.0%      0.0%
 matmuls total                          537362880       0.8%     99.2%      0.0%
 number of processed stacks              42251328       1.7%     98.3%      0.0%
 average stack size                                     6.2      12.8       0.0
 marketing flops                     8.593786E+12
 -------------------------------------------------------------------------------
 # multiplications                            952
 max memory usage/rank               2.308035E+09
 # max total images/rank                        7
 # max 3D layers                                1
 # MPI messages exchanged                 2007040
 MPI messages size (bytes):
  total size                       489.431237E+09
  min size                          33.536000E+03
  max size                           1.389920E+06
  average size                     243.857234E+03
 MPI breakdown and total messages size (bytes):
             size <=      128                   0                        0
       128 < size <=     8192                   0                        0
      8192 < size <=    32768                   0                        0
     32768 < size <=   131072              702464              27427663872
    131072 < size <=  4194304             1304576             462002651136
   4194304 < size <= 16777216                   0                        0
  16777216 < size                               0                        0
 -------------------------------------------------------------------------------

 *** WARNING in dbcsr_mm.F:295 :: Using a non-square number of MPI ranks ***
 *** might lead to poor performance. Used ranks: 28 Suggested: 25 49     ***

 -------------------------------------------------------------------------------
 -                                                                             -
 -                      DBCSR MESSAGE PASSING PERFORMANCE                      -
 -                                                                             -
 -------------------------------------------------------------------------------
 ROUTINE             CALLS      AVE VOLUME [Bytes]
 MP_Group              935
 MP_Bcast               43                     12.
 MP_Allreduce         6412                      8.
 MP_Alltoall         25880                 306194.
 MP_Wait             76160
 MP_ISend            53312                  94421.
 MP_IRecv            53312                  88170.
 MP_Memory          237280
 -------------------------------------------------------------------------------
 
 MEMORY| Estimated peak process memory [MiB]                                2202

 -------------------------------------------------------------------------------
 ----                             MULTIGRID INFO                            ----
 -------------------------------------------------------------------------------
 count for grid        1:        7165760          cutoff [a.u.]          250.00
 count for grid        2:        3953152          cutoff [a.u.]           83.33
 count for grid        3:        2803136          cutoff [a.u.]           27.78
 count for grid        4:        1996288          cutoff [a.u.]            9.26
 total gridlevel count  :       15918336

 -------------------------------------------------------------------------------
 -                                                                             -
 -                         MESSAGE PASSING PERFORMANCE                         -
 -                                                                             -
 -------------------------------------------------------------------------------

 ROUTINE             CALLS      AVE VOLUME [Bytes]
 MP_Group                5
 MP_Bcast              150                6199245.
 MP_Allreduce           80                  28319.
 MP_Sync                 4
 -------------------------------------------------------------------------------


 -------------------------------------------------------------------------------
 -                                                                             -
 -                           R E F E R E N C E S                               -
 -                                                                             -
 -------------------------------------------------------------------------------
 
 CP2K version 7.1, the CP2K developers group (2019).
 CP2K is freely available from https://www.cp2k.org/ .

 Schuett, Ole; Messmer, Peter; Hutter, Juerg; VandeVondele, Joost. 
 Electronic Structure Calculations on Graphics Processing Units, John
 Wiley & Sons, Ltd, 173-190 (2016). 
 GPU-Accelerated Sparse Matrix-Matrix Multiplication for
 Linear Scaling Density Functional Theory.
 https://dx.doi.org/10.1002/9781118670712.ch8

 Borstnik, U; VandeVondele, J; Weber, V; Hutter, J. 
 PARALLEL COMPUTING, 40 (5-6), 47-58 (2014). 
 Sparse matrix multiplication: The distributed block-compressed sparse
 row library.
 https://dx.doi.org/10.1016/j.parco.2014.03.012

 Hutter, J; Iannuzzi, M; Schiffmann, F; VandeVondele, J. 
 WIREs Comput Mol Sci., 4 (1), 15-25 (2014). 
 CP2K: atomistic simulations of condensed matter systems.
 https://dx.doi.org/10.1002/wcms.1159

 Grimme, S; Ehrlich, S; Goerigk, L. 
 JOURNAL OF COMPUTATIONAL CHEMISTRY, 32, 1456 (2011). 
 Effect of the damping function in dispersion corrected density functional theory.
 https://dx.doi.org/10.1002/jcc.21759

 Grimme, S; Antony, J; Ehrlich, S; Krieg, H. 
 JOURNAL OF CHEMICAL PHYSICS, 132 (15), 154104 (2010). 
 A consistent and accurate ab initio parametrization of density
 functional dispersion correction (DFT-D) for the 94 elements H-Pu.
 https://dx.doi.org/10.1063/1.3382344

 VandeVondele, J; Hutter, J. 
 JOURNAL OF CHEMICAL PHYSICS, 127 (11), 114105 (2007). 
 Gaussian basis sets for accurate calculations on molecular systems in
 gas and condensed phases.
 https://dx.doi.org/10.1063/1.2770708

 Krack, M. 
 THEORETICAL CHEMISTRY ACCOUNTS, 114 (1-3), 145-152 (2005). 
 Pseudopotentials for H to Kr optimized for gradient-corrected
 exchange-correlation functionals.
 https://dx.doi.org/10.1007/s00214-005-0655-y

 VandeVondele, J; Krack, M; Mohamed, F; Parrinello, M; Chassaing, T;
 Hutter, J. COMPUTER PHYSICS COMMUNICATIONS, 167 (2), 103-128 (2005). 
 QUICKSTEP: Fast and accurate density functional calculations using a
 mixed Gaussian and plane waves approach.
 https://dx.doi.org/10.1016/j.cpc.2004.12.014

 Frigo, M; Johnson, SG. 
 PROCEEDINGS OF THE IEEE, 93 (2), 216-231 (2005). 
 The design and implementation of FFTW3.
 https://dx.doi.org/10.1109/JPROC.2004.840301

 Kolafa, J. 
 JOURNAL OF COMPUTATIONAL CHEMISTRY, 25 (3), 335-342 (2004). 
 Time-reversible always stable predictor-corrector method for molecular dynamics of polarizable molecules.
 https://dx.doi.org/10.1002/jcc.10385

 Hartwigsen, C; Goedecker, S; Hutter, J. 
 PHYSICAL REVIEW B, 58 (7), 3641-3662 (1998). 
 Relativistic separable dual-space Gaussian pseudopotentials from H to Rn.
 https://dx.doi.org/10.1103/PhysRevB.58.3641

 Lippert, G; Hutter, J; Parrinello, M. 
 MOLECULAR PHYSICS, 92 (3), 477-487 (1997). 
 A hybrid Gaussian and plane wave density functional scheme.
 https://dx.doi.org/10.1080/002689797170220

 Perdew, JP; Burke, K; Ernzerhof, M. 
 PHYSICAL REVIEW LETTERS, 77 (18), 3865-3868 (1996). 
 Generalized gradient approximation made simple.
 https://dx.doi.org/10.1103/PhysRevLett.77.3865

 Goedecker, S; Teter, M; Hutter, J. 
 PHYSICAL REVIEW B, 54 (3), 1703-1710 (1996). 
 Separable dual-space Gaussian pseudopotentials.
 https://dx.doi.org/10.1103/PhysRevB.54.1703


 -------------------------------------------------------------------------------
 -                                                                             -
 -                                T I M I N G                                  -
 -                                                                             -
 -------------------------------------------------------------------------------
 SUBROUTINE                       CALLS  ASD         SELF TIME        TOTAL TIME
                                MAXIMUM       AVERAGE  MAXIMUM  AVERAGE  MAXIMUM
 CP2K                                 1  1.0     0.72     0.81 33599.91 33600.55
 vb_anal                              1  2.0 33571.59 33572.55 33585.86 33586.91
 -------------------------------------------------------------------------------

 The number of warnings for this run is : 1
 
 -------------------------------------------------------------------------------
  **** **** ******  **  PROGRAM ENDED AT                 2022-01-14 15:28:36.724
 ***** ** ***  *** **   PROGRAM RAN ON                                  exp-1-14
 **    ****   ******    PROGRAM RAN BY                                     moa59
 ***** **    ** ** **   PROGRAM PROCESS ID                                 37445
  **** **  *******  **  PROGRAM STOPPED IN /home/moa59/CRC/AlN/NewPathway/step1.
                                           Cb_H/IS/GaDoped/VIB
